

     ************************************************************************
     *************** Dalton - An Electronic Structure Program ***************
     ************************************************************************

    This is output from DALTON release Dalton2016.2 (2016)
         ( Web site: http://daltonprogram.org )

   ----------------------------------------------------------------------------

    NOTE:
     
    Dalton is an experimental code for the evaluation of molecular
    properties using (MC)SCF, DFT, CI, and CC wave functions.
    The authors accept no responsibility for the performance of
    the code or for the correctness of the results.
     
    The code (in whole or part) is provided under a licence and
    is not to be reproduced for further distribution without
    the written permission of the authors or their representatives.
     
    See the home page "http://daltonprogram.org" for further information.
     
    If results obtained with this code are published,
    the appropriate citations would be both of:
     
       K. Aidas, C. Angeli, K. L. Bak, V. Bakken, R. Bast,
       L. Boman, O. Christiansen, R. Cimiraglia, S. Coriani,
       P. Dahle, E. K. Dalskov, U. Ekstroem,
       T. Enevoldsen, J. J. Eriksen, P. Ettenhuber, B. Fernandez,
       L. Ferrighi, H. Fliegl, L. Frediani, K. Hald, A. Halkier,
       C. Haettig, H. Heiberg, T. Helgaker, A. C. Hennum,
       H. Hettema, E. Hjertenaes, S. Hoest, I.-M. Hoeyvik,
       M. F. Iozzi, B. Jansik, H. J. Aa. Jensen, D. Jonsson,
       P. Joergensen, J. Kauczor, S. Kirpekar,
       T. Kjaergaard, W. Klopper, S. Knecht, R. Kobayashi, H. Koch,
       J. Kongsted, A. Krapp, K. Kristensen, A. Ligabue,
       O. B. Lutnaes, J. I. Melo, K. V. Mikkelsen, R. H. Myhre,
       C. Neiss, C. B. Nielsen, P. Norman, J. Olsen,
       J. M. H. Olsen, A. Osted, M. J. Packer, F. Pawlowski,
       T. B. Pedersen, P. F. Provasi, S. Reine, Z. Rinkevicius,
       T. A. Ruden, K. Ruud, V. Rybkin, P. Salek, C. C. M. Samson,
       A. Sanchez de Meras, T. Saue, S. P. A. Sauer,
       B. Schimmelpfennig, K. Sneskov, A. H. Steindal,
       K. O. Sylvester-Hvid, P. R. Taylor, A. M. Teale,
       E. I. Tellgren, D. P. Tew, A. J. Thorvaldsen, L. Thoegersen,
       O. Vahtras, M. A. Watson, D. J. D. Wilson, M. Ziolkowski
       and H. Agren,
       "The Dalton quantum chemistry program system",
       WIREs Comput. Mol. Sci. 2014, 4:269–284 (doi: 10.1002/wcms.1172)
     
    and
     
       Dalton, a Molecular Electronic Structure Program,
       Release Dalton2016.2 (2016), see http://daltonprogram.org
   ----------------------------------------------------------------------------

    Authors in alphabetical order (major contribution(s) in parenthesis):

  Kestutis Aidas,           Vilnius University,           Lithuania   (QM/MM)
  Celestino Angeli,         University of Ferrara,        Italy       (NEVPT2)
  Keld L. Bak,              UNI-C,                        Denmark     (AOSOPPA, non-adiabatic coupling, magnetic properties)
  Vebjoern Bakken,          University of Oslo,           Norway      (DALTON; geometry optimizer, symmetry detection)
  Radovan Bast,             UiT The Arctic U. of Norway,  Norway      (DALTON installation and execution frameworks)
  Pablo Baudin,             University of Valencia,       Spain       (Cholesky excitation energies)
  Linus Boman,              NTNU,                         Norway      (Cholesky decomposition and subsystems)
  Ove Christiansen,         Aarhus University,            Denmark     (CC module)
  Renzo Cimiraglia,         University of Ferrara,        Italy       (NEVPT2)
  Sonia Coriani,            University of Trieste,        Italy       (CC module, MCD in RESPONS)
  Janusz Cukras,            University of Trieste,        Italy       (MChD in RESPONS)
  Paal Dahle,               University of Oslo,           Norway      (Parallelization)
  Erik K. Dalskov,          UNI-C,                        Denmark     (SOPPA)
  Thomas Enevoldsen,        Univ. of Southern Denmark,    Denmark     (SOPPA)
  Janus J. Eriksen,         Aarhus University,            Denmark     (Polarizable embedding model, TDA)
  Rasmus Faber,             University of Copenhagen,     Denmark     (Vib.avg. NMR with SOPPA, parallel AO-SOPPA)
  Berta Fernandez,          U. of Santiago de Compostela, Spain       (doublet spin, ESR in RESPONS)
  Lara Ferrighi,            Aarhus University,            Denmark     (PCM Cubic response)
  Heike Fliegl,             University of Oslo,           Norway      (CCSD(R12))
  Luca Frediani,            UiT The Arctic U. of Norway,  Norway      (PCM)
  Bin Gao,                  UiT The Arctic U. of Norway,  Norway      (Gen1Int library)
  Christof Haettig,         Ruhr-University Bochum,       Germany     (CC module)
  Kasper Hald,              Aarhus University,            Denmark     (CC module)
  Asger Halkier,            Aarhus University,            Denmark     (CC module)
  Frederik Beyer Hansen,    University of Copenhagen,     Denmark     (Parallel AO-SOPPA)
  Erik D. Hedegaard,        Univ. of Southern Denmark,    Denmark     (Polarizable embedding model, QM/MM)
  Hanne Heiberg,            University of Oslo,           Norway      (geometry analysis, selected one-electron integrals)
  Trygve Helgaker,          University of Oslo,           Norway      (DALTON; ABACUS, ERI, DFT modules, London, and much more)
  Alf Christian Hennum,     University of Oslo,           Norway      (Parity violation)
  Hinne Hettema,            University of Auckland,       New Zealand (quadratic response in RESPONS; SIRIUS supersymmetry)
  Eirik Hjertenaes,         NTNU,                         Norway      (Cholesky decomposition)
  Maria Francesca Iozzi,    University of Oslo,           Norway      (RPA)
  Brano Jansik              Technical Univ. of Ostrava    Czech Rep.  (DFT cubic response)
  Hans Joergen Aa. Jensen,  Univ. of Southern Denmark,    Denmark     (DALTON; SIRIUS, RESPONS, ABACUS modules, London, and much more)
  Dan Jonsson,              UiT The Arctic U. of Norway,  Norway      (cubic response in RESPONS module)
  Poul Joergensen,          Aarhus University,            Denmark     (RESPONS, ABACUS, and CC modules)
  Maciej Kaminski,          University of Warsaw,         Poland      (CPPh in RESPONS)
  Joanna Kauczor,           Linkoeping University,        Sweden      (Complex polarization propagator (CPP) module)
  Sheela Kirpekar,          Univ. of Southern Denmark,    Denmark     (Mass-velocity & Darwin integrals)
  Wim Klopper,              KIT Karlsruhe,                Germany     (R12 code in CC, SIRIUS, and ABACUS modules)
  Stefan Knecht,            ETH Zurich,                   Switzerland (Parallel CI and MCSCF)
  Rika Kobayashi,           Australian National Univ.,    Australia   (DIIS in CC, London in MCSCF)
  Henrik Koch,              NTNU,                         Norway      (CC module, Cholesky decomposition)
  Jacob Kongsted,           Univ. of Southern Denmark,    Denmark     (Polarizable embedding model, QM/MM)
  Andrea Ligabue,           University of Modena,         Italy       (CTOCD, AOSOPPA)
  Nanna H. List             Univ. of Southern Denmark,    Denmark     (Polarizable embedding model)
  Ola B. Lutnaes,           University of Oslo,           Norway      (DFT Hessian)
  Juan I. Melo,             University of Buenos Aires,   Argentina   (LRESC, Relativistic Effects on NMR Shieldings)
  Kurt V. Mikkelsen,        University of Copenhagen,     Denmark     (MC-SCRF and QM/MM)
  Rolf H. Myhre,            NTNU,                         Norway      (Cholesky, subsystems and ECC2)
  Christian Neiss,          Univ. Erlangen-Nuernberg,     Germany     (CCSD(R12))
  Christian B. Nielsen,     University of Copenhagen,     Denmark     (QM/MM)
  Patrick Norman,           Linkoeping University,        Sweden      (Cubic response and complex frequency response in RESPONS)
  Jeppe Olsen,              Aarhus University,            Denmark     (SIRIUS CI/density modules)
  Jogvan Magnus H. Olsen,   Univ. of Southern Denmark,    Denmark     (Polarizable embedding model, QM/MM)
  Anders Osted,             Copenhagen University,        Denmark     (QM/MM)
  Martin J. Packer,         University of Sheffield,      UK          (SOPPA)
  Filip Pawlowski,          Kazimierz Wielki University,  Poland      (CC3)
  Morten N. Pedersen,       Univ. of Southern Denmark,    Denmark     (Polarizable embedding model)
  Thomas B. Pedersen,       University of Oslo,           Norway      (Cholesky decomposition)
  Patricio F. Provasi,      University of Northeastern,   Argentina   (Analysis of coupling constants in localized orbitals)
  Zilvinas Rinkevicius,     KTH Stockholm,                Sweden      (open-shell DFT, ESR)
  Elias Rudberg,            KTH Stockholm,                Sweden      (DFT grid and basis info)
  Torgeir A. Ruden,         University of Oslo,           Norway      (Numerical derivatives in ABACUS)
  Kenneth Ruud,             UiT The Arctic U. of Norway,  Norway      (DALTON; ABACUS magnetic properties and much more)
  Pawel Salek,              KTH Stockholm,                Sweden      (DALTON; DFT code)
  Claire C. M. Samson       University of Karlsruhe       Germany     (Boys localization, r12 integrals in ERI)
  Alfredo Sanchez de Meras, University of Valencia,       Spain       (CC module, Cholesky decomposition)
  Trond Saue,               Paul Sabatier University,     France      (direct Fock matrix construction)
  Stephan P. A. Sauer,      University of Copenhagen,     Denmark     (SOPPA(CCSD), SOPPA prop., AOSOPPA, vibrational g-factors)
  Bernd Schimmelpfennig,    Forschungszentrum Karlsruhe,  Germany     (AMFI module)
  Kristian Sneskov,         Aarhus University,            Denmark     (Polarizable embedding model, QM/MM)
  Arnfinn H. Steindal,      UiT The Arctic U. of Norway,  Norway      (parallel QM/MM, Polarizable embedding model)
  Casper Steinmann,         Univ. of Southern Denmark,    Denmark     (QFIT, Polarizable embedding model)
  K. O. Sylvester-Hvid,     University of Copenhagen,     Denmark     (MC-SCRF)
  Peter R. Taylor,          VLSCI/Univ. of Melbourne,     Australia   (Symmetry handling ABACUS, integral transformation)
  Andrew M. Teale,          University of Nottingham,     England     (DFT-AC, DFT-D)
  David P. Tew,             University of Bristol,        England     (CCSD(R12))
  Olav Vahtras,             KTH Stockholm,                Sweden      (triplet response, spin-orbit, ESR, TDDFT, open-shell DFT)
  David J. Wilson,          La Trobe University,          Australia   (DFT Hessian and DFT magnetizabilities)
  Hans Agren,               KTH Stockholm,                Sweden      (SIRIUS module, RESPONS, MC-SCRF solvation model)
 --------------------------------------------------------------------------------

     Date and time (Linux)  : Thu Dec 14 01:08:15 2017
     Host name              : s81p34.deic.sdu.dk                      

 * Work memory size             :  7680000000 = 57.220 gigabytes.

 * Directories for basis set searches:
   1) /work/sdujk/kjellgren/MCSCF/CINO/pNA_RAS
   2) /gpfs/gss1/work/sdujk/kjellgren/MCSCF/dalton/build/basis


Compilation information
-----------------------

 Who compiled             | kjellgren
 Host                     | fe1.deic.sdu.dk
 System                   | Linux-3.10.0-327.36.3.el7.x86_64
 CMake generator          | Unix Makefiles
 Processor                | x86_64
 64-bit integers          | ON
 MPI                      | ON
 Fortran compiler         | /opt/sys/apps/gcc-7.2.0/openmpi-i8/2.1.2/bin/mpif9
                          | 0
 Fortran compiler version | GNU Fortran (GCC) 7.2.0
 C compiler               | /opt/sys/apps/gcc-7.2.0/openmpi-i8/2.1.2/bin/mpicc
 C compiler version       | gcc (GCC) 7.2.0
 C++ compiler             | /opt/sys/apps/gcc-7.2.0/openmpi-i8/2.1.2/bin/mpicx
                          | x
 C++ compiler version     | unknown
 BLAS                     | -Wl,--start-group;/opt/sys/apps/intel/2017.10/comp
                          | ilers_and_libraries_2018.0.128/linux/mkl/lib/intel
                          | 64/libmkl_gf_ilp64.so;/opt/sys/apps/intel/2017.10/
                          | compilers_and_libraries_2018.0.128/linux/mkl/lib/i
                          | ntel64/libmkl_gnu_thread.so;/opt/sys/apps/intel/20
                          | 17.10/compilers_and_libraries_2018.0.128/linux/mkl
                          | /lib/intel64/libmkl_core.so;/usr/lib64/libpthread.
                          | so;/usr/lib64/libm.so;-fopenmp;-Wl,--end-group
 LAPACK                   | -Wl,--start-group;/opt/sys/apps/intel/2017.10/comp
                          | ilers_and_libraries_2018.0.128/linux/mkl/lib/intel
                          | 64/libmkl_lapack95_ilp64.a;/opt/sys/apps/intel/201
                          | 7.10/compilers_and_libraries_2018.0.128/linux/mkl/
                          | lib/intel64/libmkl_gf_ilp64.so;-fopenmp;-Wl,--end-
                          | group
 Static linking           | OFF
 Last Git revision        | 130ffaa0613bb3af6cac766fc8183d6df7d68917
 Git branch               | release/2016
 Configuration time       | 2017-12-10 20:20:32.225127

 * Sequential calculation.

 * OpenMP run using 24 threads.


   Content of the .dal input file
 ----------------------------------

**DALTON INPUT
.RUN WAVE FUNCTIONS
*MOLBAS
.SYMTHR
 1.0D-2
**WAVEFUNCTION
.CI
*CI VECTOR
.PLUS COMBINATIONS
*CI INPUT
.CINO
.MAX ITERATIONS
40
.THRESH
0.001
.STATE
 1
*CONFIGURATION INPUT
.INACTIVE
 17 10
.RAS1 SPACE
 5 4
.RAS2 SPACE
 0 0
.RAS3 SPACE
 31 23
.ELECTRONS
 18
.RAS1 HOLES
 0 2
.RAS3 ELECTRONS
 0 2
.SPIN MULT
 1
.SYMMETRY
 1
*ORBITAL INPUT
.MOSTART
NEWORB
*OPTIMIZATION
.DETERMI
**END OF DALTON INPUT


   Content of the .mol file
 ----------------------------

BASIS
aug-cc-pVDZ
 16
 pNA
Atomtypes=5 Angstrom
Charge=7 Atoms=1
N          0.05590        3.50970        0.00000
Charge=6 Atoms=6
C         -0.01390        2.14150        0.00000
C         -0.02540        1.42820        1.20500
C         -0.02080        0.05250        1.20530
C         -0.01040       -0.63040        0.00000
C         -0.02080        0.05250       -1.20530
C         -0.02540        1.42820       -1.20500
Charge=7 Atoms=1
N          0.01720       -2.08000        0.00000
Charge=8 Atoms=2
O          0.03010       -2.64690        1.07680
O          0.03010       -2.64690       -1.07680
Charge=1 Atoms=6
H         -0.19080        3.99340       -0.84540
H         -0.19080        3.99340        0.84540
H         -0.03020        1.96710        2.14590
H         -0.02280       -0.50660        2.13080
H         -0.02280       -0.50660       -2.13080
H         -0.03020        1.96710       -2.14590


       *******************************************************************
       *********** Output from DALTON general input processing ***********
       *******************************************************************

 --------------------------------------------------------------------------------
   Overall default print level:    0
   Print level for DALTON.STAT:    1

    HERMIT 1- and 2-electron integral sections will be executed
    "Old" integral transformation used (limited to max 255 basis functions)
    Wave function sections will be executed (SIRIUS module)
 --------------------------------------------------------------------------------


 Changes of defaults for *MOLBAS:
 --------------------------------

 Print level in molecule setup (READIN):    1
 Symmetry detection threshold:  1.00E-02



   ****************************************************************************
   *************** Output of molecule and basis set information ***************
   ****************************************************************************


    The two title cards from your ".mol" input:
    ------------------------------------------------------------------------
 1:  16                                                                     
 2:  pNA                                                                    
    ------------------------------------------------------------------------

  Coordinates are entered in Angstrom and converted to atomic units.
          - Conversion factor : 1 bohr = 0.52917721 A

  Atomic type no.    1
  --------------------
  Nuclear charge:   7.00000
  Number of symmetry independent centers:    1
  Number of basis sets to read;    1
  Basis set file used for this atomic type with Z =   7 :
     "/gpfs/gss1/work/sdujk/kjellgren/MCSCF/dalton/build/basis/aug-cc-pVDZ"

  Atomic type no.    2
  --------------------
  Nuclear charge:   6.00000
  Number of symmetry independent centers:    6
  Number of basis sets to read;    1
  Basis set file used for this atomic type with Z =   6 :
     "/gpfs/gss1/work/sdujk/kjellgren/MCSCF/dalton/build/basis/aug-cc-pVDZ"

  Atomic type no.    3
  --------------------
  Nuclear charge:   7.00000
  Number of symmetry independent centers:    1
  Number of basis sets to read;    1
  Basis set file used for this atomic type with Z =   7 :
     "/gpfs/gss1/work/sdujk/kjellgren/MCSCF/dalton/build/basis/aug-cc-pVDZ"

  Atomic type no.    4
  --------------------
  Nuclear charge:   8.00000
  Number of symmetry independent centers:    2
  Number of basis sets to read;    1
  Basis set file used for this atomic type with Z =   8 :
     "/gpfs/gss1/work/sdujk/kjellgren/MCSCF/dalton/build/basis/aug-cc-pVDZ"

  Atomic type no.    5
  --------------------
  Nuclear charge:   1.00000
  Number of symmetry independent centers:    6
  Number of basis sets to read;    1
  Basis set file used for this atomic type with Z =   1 :
     "/gpfs/gss1/work/sdujk/kjellgren/MCSCF/dalton/build/basis/aug-cc-pVDZ"


                      SYMADD: Requested addition of symmetry
                      --------------------------------------

 Symmetry test threshold:  1.00E-02

@   The molecule is centered at center of mass and rotated
@   so principal axes of inertia are along coordinate axes.

 Symmetry class found: C(s)           

 Symmetry Independent Centres             
 ----------------------------
       8 :      0.02992653     2.03485709    -5.00226499  Isotope  1
       7 :      0.01104435     0.00000000    -3.93086830  Isotope  1
       7 :      0.13835674     0.00000000     6.63161974  Isotope  1
       6 :     -0.02706044     0.00000000    -1.19128982  Isotope  1
       6 :     -0.04009398     2.27768690     0.09928798  Isotope  1
       6 :     -0.03545195     2.27711998     2.69899460  Isotope  1
       6 :      0.00000000     0.00000000     4.04680704  Isotope  1
       1 :     -0.04929274     4.02662843    -0.95722461  Isotope  1
       1 :     -0.03929896     4.05516329     3.71740114  Isotope  1
       1 :     -0.32314406     1.59757447     7.54805951  Isotope  1

 The following element was found:   Y        


                         SYMGRP: Point group information
                         -------------------------------

@    Full point group is: C(s)           
@    Represented as:      Cs 

@  * The irrep name for each symmetry:    1: A'     2: A" 

   * The point group was generated by:

      Reflection in the xz-plane

   * Group multiplication table

        |  E   Oxz
   -----+----------
     E  |  E   Oxz
    Oxz | Oxz   E 

   * Character table

        |  E   Oxz
   -----+----------
    A'  |   1    1
    A"  |   1   -1

   * Direct product table

        | A'   A" 
   -----+----------
    A'  | A'   A" 
    A"  | A"   A' 


                                 Isotopic Masses
                                 ---------------

                           N          14.003074
                           C          12.000000
                           C          12.000000
                           C   _1     12.000000
                           C   _2     12.000000
                           C   _1     12.000000
                           C   _2     12.000000
                           N          14.003074
                           O   _1     15.994915
                           O   _2     15.994915
                           H   _1      1.007825
                           H   _2      1.007825
                           H   _1      1.007825
                           H   _2      1.007825
                           H   _1      1.007825
                           H   _2      1.007825

                       Total mass:   138.042928 amu
                       Natural abundance:  92.359 %

 Center-of-mass coordinates (a.u.):    0.000592    0.000000    0.000000


  Atoms and basis sets
  --------------------

  Number of atom types :    5
  Total number of atoms:   16

  Basis set used is "aug-cc-pVDZ" from the basis set library.

  label    atoms   charge   prim   cont     basis
  ----------------------------------------------------------------------
  N           1    7.0000    35    23      [10s5p2d|4s3p2d]                                   
  C           6    6.0000    35    23      [10s5p2d|4s3p2d]                                   
  N           1    7.0000    35    23      [10s5p2d|4s3p2d]                                   
  O           2    8.0000    35    23      [10s5p2d|4s3p2d]                                   
  H           6    1.0000    11     9      [5s2p|3s2p]                                        
  ----------------------------------------------------------------------
  total:     16   72.0000   416   284
  ----------------------------------------------------------------------
  Spherical harmonic basis used.

  Threshold for neglecting AO integrals:  1.00D-12


  Symmetry Coordinates
  --------------------

  Number of coordinates in each symmetry:    26   22


   Interatomic separations (in Angstrom):
   --------------------------------------

            N           C           C           C   _1      C   _2      C   _1
            ------      ------      ------      ------      ------      ------
 N     :    0.000000
 C     :    1.369782    0.000000
 C     :    4.140631    2.771918    0.000000
 C   _1:    3.662084    2.411816    1.385355    0.000000
 C   _2:    3.662084    2.411816    1.385355    2.410600    0.000000
 C   _1:    2.406507    1.400384    2.385390    1.375708    2.775269    0.000000
 C   _2:    2.406507    1.400384    2.385390    2.775269    1.375708    2.410000
 N     :    5.589834    4.221608    1.449863    2.449847    2.449847    3.709624
 O   _1:    6.250111    4.908165    2.286353    2.702936    3.535157    4.077494
 O   _2:    6.250111    4.908165    2.286353    3.535157    2.702936    4.670774
 H   _1:    1.004753    2.043709    4.703910    3.960949    4.445780    2.595558
 H   _2:    1.004753    2.043709    4.703910    4.445780    3.960949    3.288122
 H   _1:    4.547215    3.398970    2.134429    1.081271    3.382626    2.144892
 H   _2:    4.547215    3.398970    2.134429    3.382626    1.081271    3.856296
 H   _1:    2.644223    2.153069    3.369315    2.133192    3.859575    1.084310
 H   _2:    2.644223    2.153069    3.369315    3.859575    2.133192    3.393960

            C   _2      N           O   _1      O   _2      H   _1      H   _2
            ------      ------      ------      ------      ------      ------
 C   _2:    0.000000
 N     :    3.709624    0.000000
 O   _1:    4.670774    1.216980    0.000000
 O   _2:    4.077494    1.216980    2.153600    0.000000
 H   _1:    3.288122    6.135483    6.648002    6.916447    0.000000
 H   _2:    2.595558    6.135483    6.916447    6.648002    1.690800    0.000000
 H   _1:    3.856296    2.649056    2.386336    3.856473    4.682999    5.397776
 H   _2:    2.144892    2.649056    3.856473    2.386336    5.397776    4.682999
 H   _1:    3.393960    4.581065    4.736624    5.628359    2.413086    3.616567
 H   _2:    1.084310    4.581065    5.628359    4.736624    3.616567    2.413086

            H   _1      H   _2      H   _1      H   _2
            ------      ------      ------      ------
 H   _1:    0.000000
 H   _2:    4.261600    0.000000
 H   _1:    2.473757    4.940588    0.000000
 H   _2:    4.940588    2.473757    4.291800    0.000000


  Max    interatomic separation is    6.9164 Angstrom (   13.0702 Bohr)
  between atoms   11 and   10, "H   _1" and "O   _2".

  Min HX interatomic separation is    1.0048 Angstrom (    1.8987 Bohr)

  Min YX interatomic separation is    1.2170 Angstrom (    2.2998 Bohr)


  Bond distances (Angstrom):
  --------------------------

                  atom 1     atom 2       distance
                  ------     ------       --------
  bond distance:  C          N            1.369782
  bond distance:  C   _1     C            1.385355
  bond distance:  C   _2     C            1.385355
  bond distance:  C   _1     C            1.400384
  bond distance:  C   _1     C   _1       1.375708
  bond distance:  C   _2     C            1.400384
  bond distance:  C   _2     C   _2       1.375708
  bond distance:  N          C            1.449863
  bond distance:  O   _1     N            1.216980
  bond distance:  O   _2     N            1.216980
  bond distance:  H   _1     N            1.004753
  bond distance:  H   _2     N            1.004753
  bond distance:  H   _1     C   _1       1.081271
  bond distance:  H   _2     C   _2       1.081271
  bond distance:  H   _1     C   _1       1.084310
  bond distance:  H   _2     C   _2       1.084310


  Bond angles (degrees):
  ----------------------

                  atom 1     atom 2     atom 3         angle
                  ------     ------     ------         -----
  bond angle:     C          N          H   _1       117.968
  bond angle:     C          N          H   _2       117.968
  bond angle:     H   _1     N          H   _2       114.577
  bond angle:     N          C          C   _1       120.617
  bond angle:     N          C          C   _2       120.617
  bond angle:     C   _1     C          C   _2       118.741
  bond angle:     C   _1     C          C   _2       120.924
  bond angle:     C   _1     C          N            119.538
  bond angle:     C   _2     C          N            119.538
  bond angle:     C          C   _1     C   _1       119.523
  bond angle:     C          C   _1     H   _1       119.328
  bond angle:     C   _1     C   _1     H   _1       121.148
  bond angle:     C          C   _2     C   _2       119.523
  bond angle:     C          C   _2     H   _2       119.328
  bond angle:     C   _2     C   _2     H   _2       121.148
  bond angle:     C          C   _1     C   _1       120.632
  bond angle:     C          C   _1     H   _1       119.575
  bond angle:     C   _1     C   _1     H   _1       119.790
  bond angle:     C          C   _2     C   _2       120.632
  bond angle:     C          C   _2     H   _2       119.575
  bond angle:     C   _2     C   _2     H   _2       119.790
  bond angle:     C          N          O   _1       117.771
  bond angle:     C          N          O   _2       117.771
  bond angle:     O   _1     N          O   _2       124.457




 Principal moments of inertia (u*A**2) and principal axes
 --------------------------------------------------------

   IA     126.847237          0.000153    0.000000    1.000000
   IB     606.660655          0.000000    1.000000    0.000000
   IC     733.175030          1.000000    0.000000   -0.000153


 Rotational constants
 --------------------

               A                   B                   C

           3984.1546            833.0506            689.3020 MHz
            0.132897            0.027788            0.022993 cm-1


@  Nuclear repulsion energy :  498.690761145467 Hartree


  Symmetry Orbitals
  -----------------

  Number of orbitals in each symmetry:         160  124


  Symmetry  A' ( 1)

    1     N        1s         1
    2     N        1s         2
    3     N        1s         3
    4     N        1s         4
    5     N        2px        5
    6     N        2pz        7
    7     N        2px        8
    8     N        2pz       10
    9     N        2px       11
   10     N        2pz       13
   11     N        3d0       16
   12     N        3d1+      17
   13     N        3d2+      18
   14     N        3d0       21
   15     N        3d1+      22
   16     N        3d2+      23
   17     C        1s        24
   18     C        1s        25
   19     C        1s        26
   20     C        1s        27
   21     C        2px       28
   22     C        2pz       30
   23     C        2px       31
   24     C        2pz       33
   25     C        2px       34
   26     C        2pz       36
   27     C        3d0       39
   28     C        3d1+      40
   29     C        3d2+      41
   30     C        3d0       44
   31     C        3d1+      45
   32     C        3d2+      46
   33     C        1s        47
   34     C        1s        48
   35     C        1s        49
   36     C        1s        50
   37     C        2px       51
   38     C        2pz       53
   39     C        2px       54
   40     C        2pz       56
   41     C        2px       57
   42     C        2pz       59
   43     C        3d0       62
   44     C        3d1+      63
   45     C        3d2+      64
   46     C        3d0       67
   47     C        3d1+      68
   48     C        3d2+      69
   49     C        1s        70 +   71
   50     C        1s        72 +   73
   51     C        1s        74 +   75
   52     C        1s        76 +   77
   53     C        2px       78 +   79
   54     C        2py       80 -   81
   55     C        2pz       82 +   83
   56     C        2px       84 +   85
   57     C        2py       86 -   87
   58     C        2pz       88 +   89
   59     C        2px       90 +   91
   60     C        2py       92 -   93
   61     C        2pz       94 +   95
   62     C        3d2-      96 -   97
   63     C        3d1-      98 -   99
   64     C        3d0      100 +  101
   65     C        3d1+     102 +  103
   66     C        3d2+     104 +  105
   67     C        3d2-     106 -  107
   68     C        3d1-     108 -  109
   69     C        3d0      110 +  111
   70     C        3d1+     112 +  113
   71     C        3d2+     114 +  115
   72     C        1s       116 +  117
   73     C        1s       118 +  119
   74     C        1s       120 +  121
   75     C        1s       122 +  123
   76     C        2px      124 +  125
   77     C        2py      126 -  127
   78     C        2pz      128 +  129
   79     C        2px      130 +  131
   80     C        2py      132 -  133
   81     C        2pz      134 +  135
   82     C        2px      136 +  137
   83     C        2py      138 -  139
   84     C        2pz      140 +  141
   85     C        3d2-     142 -  143
   86     C        3d1-     144 -  145
   87     C        3d0      146 +  147
   88     C        3d1+     148 +  149
   89     C        3d2+     150 +  151
   90     C        3d2-     152 -  153
   91     C        3d1-     154 -  155
   92     C        3d0      156 +  157
   93     C        3d1+     158 +  159
   94     C        3d2+     160 +  161
   95     N        1s       162
   96     N        1s       163
   97     N        1s       164
   98     N        1s       165
   99     N        2px      166
  100     N        2pz      168
  101     N        2px      169
  102     N        2pz      171
  103     N        2px      172
  104     N        2pz      174
  105     N        3d0      177
  106     N        3d1+     178
  107     N        3d2+     179
  108     N        3d0      182
  109     N        3d1+     183
  110     N        3d2+     184
  111     O        1s       185 +  186
  112     O        1s       187 +  188
  113     O        1s       189 +  190
  114     O        1s       191 +  192
  115     O        2px      193 +  194
  116     O        2py      195 -  196
  117     O        2pz      197 +  198
  118     O        2px      199 +  200
  119     O        2py      201 -  202
  120     O        2pz      203 +  204
  121     O        2px      205 +  206
  122     O        2py      207 -  208
  123     O        2pz      209 +  210
  124     O        3d2-     211 -  212
  125     O        3d1-     213 -  214
  126     O        3d0      215 +  216
  127     O        3d1+     217 +  218
  128     O        3d2+     219 +  220
  129     O        3d2-     221 -  222
  130     O        3d1-     223 -  224
  131     O        3d0      225 +  226
  132     O        3d1+     227 +  228
  133     O        3d2+     229 +  230
  134     H        1s       231 +  232
  135     H        1s       233 +  234
  136     H        1s       235 +  236
  137     H        2px      237 +  238
  138     H        2py      239 -  240
  139     H        2pz      241 +  242
  140     H        2px      243 +  244
  141     H        2py      245 -  246
  142     H        2pz      247 +  248
  143     H        1s       249 +  250
  144     H        1s       251 +  252
  145     H        1s       253 +  254
  146     H        2px      255 +  256
  147     H        2py      257 -  258
  148     H        2pz      259 +  260
  149     H        2px      261 +  262
  150     H        2py      263 -  264
  151     H        2pz      265 +  266
  152     H        1s       267 +  268
  153     H        1s       269 +  270
  154     H        1s       271 +  272
  155     H        2px      273 +  274
  156     H        2py      275 -  276
  157     H        2pz      277 +  278
  158     H        2px      279 +  280
  159     H        2py      281 -  282
  160     H        2pz      283 +  284


  Symmetry  A" ( 2)

  161     N        2py        6
  162     N        2py        9
  163     N        2py       12
  164     N        3d2-      14
  165     N        3d1-      15
  166     N        3d2-      19
  167     N        3d1-      20
  168     C        2py       29
  169     C        2py       32
  170     C        2py       35
  171     C        3d2-      37
  172     C        3d1-      38
  173     C        3d2-      42
  174     C        3d1-      43
  175     C        2py       52
  176     C        2py       55
  177     C        2py       58
  178     C        3d2-      60
  179     C        3d1-      61
  180     C        3d2-      65
  181     C        3d1-      66
  182     C        1s        70 -   71
  183     C        1s        72 -   73
  184     C        1s        74 -   75
  185     C        1s        76 -   77
  186     C        2px       78 -   79
  187     C        2py       80 +   81
  188     C        2pz       82 -   83
  189     C        2px       84 -   85
  190     C        2py       86 +   87
  191     C        2pz       88 -   89
  192     C        2px       90 -   91
  193     C        2py       92 +   93
  194     C        2pz       94 -   95
  195     C        3d2-      96 +   97
  196     C        3d1-      98 +   99
  197     C        3d0      100 -  101
  198     C        3d1+     102 -  103
  199     C        3d2+     104 -  105
  200     C        3d2-     106 +  107
  201     C        3d1-     108 +  109
  202     C        3d0      110 -  111
  203     C        3d1+     112 -  113
  204     C        3d2+     114 -  115
  205     C        1s       116 -  117
  206     C        1s       118 -  119
  207     C        1s       120 -  121
  208     C        1s       122 -  123
  209     C        2px      124 -  125
  210     C        2py      126 +  127
  211     C        2pz      128 -  129
  212     C        2px      130 -  131
  213     C        2py      132 +  133
  214     C        2pz      134 -  135
  215     C        2px      136 -  137
  216     C        2py      138 +  139
  217     C        2pz      140 -  141
  218     C        3d2-     142 +  143
  219     C        3d1-     144 +  145
  220     C        3d0      146 -  147
  221     C        3d1+     148 -  149
  222     C        3d2+     150 -  151
  223     C        3d2-     152 +  153
  224     C        3d1-     154 +  155
  225     C        3d0      156 -  157
  226     C        3d1+     158 -  159
  227     C        3d2+     160 -  161
  228     N        2py      167
  229     N        2py      170
  230     N        2py      173
  231     N        3d2-     175
  232     N        3d1-     176
  233     N        3d2-     180
  234     N        3d1-     181
  235     O        1s       185 -  186
  236     O        1s       187 -  188
  237     O        1s       189 -  190
  238     O        1s       191 -  192
  239     O        2px      193 -  194
  240     O        2py      195 +  196
  241     O        2pz      197 -  198
  242     O        2px      199 -  200
  243     O        2py      201 +  202
  244     O        2pz      203 -  204
  245     O        2px      205 -  206
  246     O        2py      207 +  208
  247     O        2pz      209 -  210
  248     O        3d2-     211 +  212
  249     O        3d1-     213 +  214
  250     O        3d0      215 -  216
  251     O        3d1+     217 -  218
  252     O        3d2+     219 -  220
  253     O        3d2-     221 +  222
  254     O        3d1-     223 +  224
  255     O        3d0      225 -  226
  256     O        3d1+     227 -  228
  257     O        3d2+     229 -  230
  258     H        1s       231 -  232
  259     H        1s       233 -  234
  260     H        1s       235 -  236
  261     H        2px      237 -  238
  262     H        2py      239 +  240
  263     H        2pz      241 -  242
  264     H        2px      243 -  244
  265     H        2py      245 +  246
  266     H        2pz      247 -  248
  267     H        1s       249 -  250
  268     H        1s       251 -  252
  269     H        1s       253 -  254
  270     H        2px      255 -  256
  271     H        2py      257 +  258
  272     H        2pz      259 -  260
  273     H        2px      261 -  262
  274     H        2py      263 +  264
  275     H        2pz      265 -  266
  276     H        1s       267 -  268
  277     H        1s       269 -  270
  278     H        1s       271 -  272
  279     H        2px      273 -  274
  280     H        2py      275 +  276
  281     H        2pz      277 -  278
  282     H        2px      279 -  280
  283     H        2py      281 +  282
  284     H        2pz      283 -  284

  Symmetries of electric field:  A' (1)  A" (2)  A' (1)

  Symmetries of magnetic field:  A" (2)  A' (1)  A" (2)


                     .---------------------------------------.
                     | Starting in Integral Section (HERMIT) |
                     `---------------------------------------'



 ***************************************************************************************
 ****************** Output from **INTEGRALS input processing (HERMIT) ******************
 ***************************************************************************************


 - Using defaults, no **INTEGRALS input found

 Default print level:        1

 * Nuclear model: Point charge

 Calculation of one- and two-electron Hamiltonian integrals.

 Center of mass  (bohr):      0.000591674130      0.000000000000      0.000000000000
 Operator center (bohr):      0.000000000000      0.000000000000      0.000000000000
 Gauge origin    (bohr):      0.000591674130      0.000000000000      0.000000000000
 Dipole origin   (bohr):      0.000591674130      0.000000000000      0.000000000000


     ************************************************************************
     ************************** Output from HERINT **************************
     ************************************************************************

  Time used in ONEDRV     is       0.16 seconds
  Time used in POPOVLP    is       0.11 seconds
  Time used in QUADRUP    is       0.16 seconds
  Time used in KINENE     is       0.18 seconds

 Threshold for neglecting two-electron integrals:  1.00D-12
 HERMIT - Number of two-electron integrals written:   383393784 ( 46.8% )
 HERMIT - Megabytes written:                           5852.566

  Time used in TWOINT     is      1 minute  52 seconds
  Total CPU  time used in HERMIT:  1 minute  53 seconds
  Total wall time used in HERMIT:  1 minute  41 seconds


                        .----------------------------------.
                        | End of Integral Section (HERMIT) |
                        `----------------------------------'



                   .--------------------------------------------.
                   | Starting in Wave Function Section (SIRIUS) |
                   `--------------------------------------------'


INFO: no P-SUPMAT because more than 255 basis functions

 **********************************************************************
 *SIRIUS* a direct, restricted step, second order MCSCF program       *
 **********************************************************************

 
     Date and time (Linux)  : Thu Dec 14 01:09:56 2017
     Host name              : s81p34.deic.sdu.dk                      

 Title lines from ".mol" input file:
      16                                                                     
      pNA                                                                    

 Print level on unit LUPRI =   2 is   0
 Print level on unit LUW4  =   2 is   5

@    CI-NO calculation.

@    CI type: user specified active spaces.
@              Type: restricted active space calculation (RAS)

 Initial molecular orbitals are obtained according to
 ".MOSTART NEWORB" input option

     Wave function specification
     ============================
@    Wave function type        --- CI ---
@    Number of closed shell electrons          54
@    Number of electrons in active shells      18
@    Total charge of the molecule               0

@    Spin multiplicity and 2 M_S                1         0
@    Total number of symmetries                 2 (point group: Cs )
@    Reference state symmetry                   1 (irrep name : A' )

Number of active orbitals in RAS1, RAS2, and RAS3 :   9   0  54

@    Minimum number of electrons in RAS1 :  16 (maximum   2 holes)
@    Maximum number of electrons in RAS1 :  18 (minimum   0 holes)

@    Minimum number of electrons in RAS3 :   0
@    Maximum number of electrons in RAS3 :   2

     Orbital specifications
     ======================
@    Abelian symmetry species          All |    1    2
@                                          |  A'   A" 
                                       --- |  ---  ---
@    Inactive orbitals                  27 |   17   10
@    Active orbitals                    63 |   36   27
@    - Active orbitals in RAS1           9 |    5    4
@    - Active orbitals in RAS3          54 |   31   23
@    Secondary orbitals                194 |  107   87
@    Total number of orbitals          284 |  160  124
@    Number of basis functions         284 |  160  124

     Optimization information
     ========================
@    Number of determinants              170121
@    Number of orbital rotations              0
     ------------------------------------------
@    Total number of variables           170121

     Maximum number of CI iterations         25
     Threshold for CI convergence      1.00D-03
     Number of CI roots to converge           1

     The CI calculation converges only root no.   1

    INFORMATION: Switched to "new" integral transformation (from 1988 ;-) )
    because more than 255 basis functions.


 ----- Output from SIRIUS CI module (CICTL) -----




 Integral transformation: Total CPU and WALL times (sec)     505.135     226.080


 --- SIRCI.CIST1: plus combination of all degenerate
                 configurations is used as start vectors.


 (CIST1)  8 lowest diagonal elements:

 Element no. Config.no.    Active energy      Total energy

         1 :          1    -47.8607693370   -489.2672607540
         2 :         25    -47.5535127005   -488.9600041175
         3 :      26020    -47.5535127005   -488.9600041175
         4 :         95    -47.5202369761   -488.9267283931
         5 :      26090    -47.5202369761   -488.9267283931
         6 :         94    -47.5154068903   -488.9218983073
         7 :      26089    -47.5154068903   -488.9218983073
         8 :        156    -47.4376152078   -488.8441066249


 Convergence threshold for CI optimization :     0.00100000


 The requested root number is now converged.


 *** CI converged in  7 iterations.



@ Final CI energies and residuals in symmetry 1 (irrep A' )
@    1     -489.585720648042923       3.17D-04


     ***********************************
     *** CI natural orbital analysis ***
     ***********************************

 ------------------------------------------------
 CI eigenvector no.   1 (= the reference state)
 ------------------------------------------------

 Printout of CI-coefficients abs greater than: 0.05000


  Printout of coefficients in interval   0.3162E+00 to  0.1000E+01
  ==============================================================

 Coefficient of determinant         1 is      0.93526534  9.35265341E-01
 alpha-string:  1  2  3  4  5                                                                                              37 38 39 40
  beta-string:  1  2  3  4  5                                                                                              37 38 39 40


  Printout of coefficients in interval   0.1000E+00 to  0.3162E+00
  ==============================================================

 Coefficient of determinant    113001 is     -0.10638071 -1.06380708E-01
 alpha-string:  1  2  3  4  5  6
  beta-string:  1  2  3  4  5  6


  Printout of coefficients in interval   0.5000E-01 to  0.1000E+00
  ==============================================================

 Coefficient of determinant     31948 is     -0.07148338 -7.14833769E-02
 alpha-string:  1  2  3  4  5                                                                                              37 38    40 41
  beta-string:  1  2  3  4  5                                                                                              37 38    40 41

 Coefficient of determinant     49308 is     -0.05896406 -5.89640595E-02
 alpha-string:  1  2  3  4        7
  beta-string:  1  2  3  4        7

 Norm of printed part of CI vector ..      0.89462475

  Magnitude of CI coefficients
  ============================

  ( Ranges are relative to norm of vector :  1.00E+00 )

  10- 1 to 10- 0         2    0.88603811E+00    0.88603811E+00
  10- 2 to 10- 1       103    0.48351202E-01    0.93438931E+00
  10- 3 to 10- 2      9222    0.54516088E-01    0.98890540E+00
  10- 4 to 10- 3     69722    0.10925508E-01    0.99983091E+00
  10- 5 to 10- 4     64765    0.16836922E-03    0.99999928E+00
  10- 6 to 10- 5     22625    0.71823025E-06    0.10000000E+01
  10- 7 to 10- 6      3276    0.11851695E-08    0.10000000E+01
  10- 8 to 10- 7       390    0.14956604E-11    0.10000000E+01
  10- 9 to 10- 8        14    0.22172504E-15    0.10000000E+01
  10-10 to 10- 9         2    0.13651673E-17    0.10000000E+01
  Number of coefficients less than 10^-11 times norm is                      0

 Occupancies of natural orbitals
 -------------------------------

 Symmetry 1  ( A' ) -- Total occupation in this symmetry is  44.042193642

   2.000000000   2.000000000   2.000000000   2.000000000   2.000000000
   2.000000000   2.000000000   2.000000000   2.000000000   2.000000000
   2.000000000   2.000000000   2.000000000   2.000000000   2.000000000
   2.000000000   2.000000000   1.985333573   1.979459743   1.976885257
   1.972616382   1.960972999   0.057385963   0.027969019   0.015894300
   0.012211213   0.008265214   0.005411159   0.004737511   0.003997345
   0.003460181   0.003034204   0.002886035   0.002519702   0.002501197
   0.002176052   0.001921246   0.001897409   0.001624265   0.001246964
   0.001183679   0.001119209   0.001065645   0.000962642   0.000794455
   0.000668816   0.000604454   0.000487925   0.000331242   0.000245514
   0.000150264   0.000124845   0.000048018

 Symmetry 2  ( A" ) -- Total occupation in this symmetry is  27.957806358

   2.000000000   2.000000000   2.000000000   2.000000000   2.000000000
   2.000000000   2.000000000   2.000000000   2.000000000   2.000000000
   1.984336265   1.974981641   1.962008666   1.953942938   0.031152899
   0.014129526   0.007104114   0.004798573   0.003324808   0.002914899
   0.002701187   0.002627315   0.002411183   0.002304065   0.001768994
   0.001538429   0.001032519   0.000989031   0.000891384   0.000835866
   0.000615037   0.000389421   0.000372540   0.000265782   0.000214202
   0.000110642   0.000044432

 GETNO: the orbital coefficients are transformed to natural orbitals.

 The natural orbitals are saved with label "NEWORB  ".


 CPU and wall time for CI :     587.148     302.016


                       .-----------------------------------.
                       | --- Final results from SIRIUS --- |
                       `-----------------------------------'


@    Spin multiplicity:           1
@    Spatial symmetry:            1 ( irrep  A'  in Cs  )
@    Total charge of molecule:    0

@    This was a CI-NO calculation.

 
     Date and time (Linux)  : Thu Dec 14 01:14:58 2017
     Host name              : s81p34.deic.sdu.dk                      

File label for MO orbitals:  14Dec17   CINOSAVE

 (Only coefficients > 0.0100 are printed.)

 Molecular orbitals for symmetry species 1  (A' )
 ------------------------------------------------

    Orbital         8        9       10       11       12       13       14
   1 N   :1s    -0.0012  -0.0068  -0.0110   0.0067   0.0010  -0.0006  -0.0018
   2 N   :1s     0.0508   0.2678   0.5728  -0.4837  -0.0628  -0.0060  -0.1120
   3 N   :1s    -0.0201  -0.0245  -0.0409   0.0089  -0.0227  -0.0146   0.0383
   4 N   :1s     0.0311  -0.0395  -0.0949   0.0840   0.0323   0.2250   0.0640
   5 N   :2px   -0.0003  -0.0034  -0.0118   0.0137   0.0045   0.0088   0.0199
   6 N   :2pz   -0.0052  -0.0203   0.0151  -0.1018  -0.0772  -0.1067  -0.1886
   7 N   :2px    0.0022   0.0106   0.0250  -0.0224  -0.0046  -0.0037  -0.0105
   8 N   :2pz   -0.0011  -0.0299  -0.0874   0.0885   0.0313   0.0329   0.0371
  10 N   :2pz   -0.0063   0.0011   0.0171  -0.0027  -0.0009  -0.0588  -0.0234
  14 N   :3d0    0.0030   0.0075   0.0162  -0.0096   0.0007   0.0017  -0.0039
  16 N   :3d2+   0.0017   0.0127   0.0262  -0.0233  -0.0054  -0.0061  -0.0102
  17 C   :1s    -0.0035  -0.0136  -0.0110  -0.0025  -0.0022  -0.0002  -0.0005
  18 C   :1s     0.0985   0.3639   0.2495   0.1867   0.1861   0.3522   0.4189
  19 C   :1s    -0.1071  -0.1840  -0.2490  -0.0664  -0.0406   0.1139   0.0617
  20 C   :1s    -0.1551   0.1869   0.3716   0.1305   0.2056  -1.4075  -0.5116
  21 C   :2px    0.0002   0.0030   0.0112  -0.0131  -0.0020   0.0003  -0.0001
  22 C   :2pz   -0.0212  -0.0417   0.0913  -0.1514  -0.0464  -0.1015  -0.0314
  23 C   :2px   -0.0001  -0.0027  -0.0098   0.0110  -0.0007  -0.0070  -0.0011
  24 C   :2pz    0.0019  -0.0768  -0.1523   0.0863   0.0210   0.0702  -0.0270
  25 C   :2px    0.0013   0.0020   0.0086  -0.0142  -0.0022   0.0077  -0.0060
  26 C   :2pz    0.0140   0.0061  -0.0455  -0.1579  -0.0933   0.1997   0.0673
  27 C   :3d0    0.0003   0.0045   0.0130  -0.0198   0.0002   0.0182   0.0020
  29 C   :3d2+  -0.0038  -0.0121  -0.0041  -0.0152  -0.0053   0.0065  -0.0035
  30 C   :3d0    0.0272   0.0019  -0.0434   0.1106   0.0490   0.0029  -0.0219
  32 C   :3d2+   0.0087  -0.0075  -0.0248   0.0415   0.0184   0.0094  -0.0030
  33 C   :1s    -0.0107  -0.0066   0.0103   0.0105  -0.0049   0.0012   0.0011
  34 C   :1s     0.2468   0.1613  -0.2977  -0.2892   0.4223  -0.0743  -0.2175
  35 C   :1s     0.0183  -0.0971   0.3714   0.0881   0.0516  -0.1607  -0.0626
  36 C   :1s     0.1532  -0.2884  -0.1338  -0.0386  -0.8389   1.0219   0.3122
  38 C   :2pz   -0.0487   0.0884  -0.0617  -0.0012  -0.0107   0.1396  -0.1924
  40 C   :2pz    0.1436  -0.0622   0.0253  -0.0492   0.0153  -0.0825  -0.0116
  42 C   :2pz   -0.0496  -0.0055  -0.0394  -0.1512  -0.1672   0.0896   0.0460
  43 C   :3d0    0.0100  -0.0056   0.0038   0.0027   0.0257  -0.0154   0.0062
  45 C   :3d2+  -0.0049  -0.0086   0.0110   0.0115   0.0073  -0.0063   0.0000
  46 C   :3d0   -0.1096   0.0321  -0.0420  -0.0148  -0.0778   0.1023  -0.0651
  48 C   :3d2+  -0.0543   0.0083  -0.0127   0.0009  -0.0238   0.0419  -0.0440
  50 C   :1s     0.1680   0.2671  -0.3096  -0.1511  -0.1758   0.1289  -0.1024
  51 C   :1s    -0.1037  -0.0780   0.1235   0.0830   0.0685   0.0265  -0.0275
  52 C   :1s    -0.1161   0.1664   0.3673   0.4859   0.7694  -1.0695  -0.3656
  54 C   :2py   -0.0088  -0.0050   0.0054   0.0105  -0.3318  -0.0181   0.1896
  55 C   :2pz   -0.0226   0.0200   0.0569   0.1552   0.0583   0.0418  -0.1068
  57 C   :2py    0.0096  -0.0378   0.0316  -0.0295   0.1421   0.0201  -0.0951
  58 C   :2pz    0.1413  -0.0352   0.0904  -0.0433   0.0102  -0.0608   0.0639
  60 C   :2py    0.0253  -0.0402  -0.0320   0.0095  -0.0843   0.1650   0.0541
  61 C   :2pz    0.0120   0.0029   0.0828   0.1631   0.1012  -0.1274  -0.0451
  63 C   :3d1-   0.0040  -0.0007  -0.0036  -0.0002   0.0148  -0.0165  -0.0143
  64 C   :3d0    0.0030   0.0051   0.0029   0.0103  -0.0007  -0.0033   0.0011
  68 C   :3d1-  -0.0133   0.0068  -0.0796  -0.0388  -0.1022   0.0887   0.0159
  69 C   :3d0    0.0188   0.0004   0.0185  -0.0054  -0.0244   0.0133  -0.0367
  71 C   :3d2+   0.0044   0.0029   0.0072  -0.0168  -0.0224   0.0109  -0.0166
  72 C   :1s    -0.0041  -0.0113   0.0009  -0.0058   0.0008  -0.0012  -0.0009
  73 C   :1s     0.1121   0.3496   0.0240   0.3315   0.0083  -0.0914  -0.0515
  74 C   :1s    -0.1036  -0.1394  -0.1647  -0.0696   0.0185   0.1191   0.0557
  75 C   :1s     0.1164  -0.1574  -0.4372  -0.5433  -0.4907   1.2680   0.4439
  77 C   :2py   -0.0072  -0.0170  -0.0214   0.0277  -0.1261  -0.3360  -0.1673
  78 C   :2pz   -0.0092   0.0240   0.1006   0.0696   0.0301  -0.1447   0.1151
  80 C   :2py   -0.0060  -0.0073   0.0143   0.0031   0.1060   0.1473   0.0934
  81 C   :2pz    0.0844  -0.0145   0.0185   0.0326   0.0122   0.0760  -0.0599
  83 C   :2py   -0.0333   0.0239   0.0520  -0.0006   0.0366  -0.1997  -0.0699
  84 C   :2pz   -0.0135   0.0007   0.0707   0.1443   0.1038  -0.1342  -0.0341
  86 C   :3d1-  -0.0003  -0.0046  -0.0046   0.0023   0.0079  -0.0177  -0.0174
  91 C   :3d1-  -0.0169  -0.0390  -0.0485  -0.0629  -0.0322   0.1056   0.0451
  92 C   :3d0   -0.0077   0.0219  -0.0076   0.0166   0.0017  -0.0230   0.0020
  94 C   :3d2+  -0.0032   0.0103  -0.0071   0.0274   0.0081  -0.0141   0.0006
  96 N   :1s     0.4492  -0.1562   0.0118  -0.0761   0.3270  -0.2781   0.1446
  97 N   :1s    -0.1221   0.0526  -0.0217  -0.0350   0.0352  -0.0780   0.0466
  98 N   :1s    -0.1611   0.1328  -0.0282  -0.1318   0.1118  -0.2195  -0.0077
 100 N   :2pz   -0.0038   0.0501  -0.0934  -0.1330   0.1905  -0.1797   0.2188
 102 N   :2pz    0.1348  -0.0584   0.0299   0.0396   0.0006   0.0232  -0.0754
 104 N   :2pz    0.0382   0.0162  -0.0161   0.0145   0.0584  -0.0131  -0.0080
 105 N   :3d0    0.0031   0.0011  -0.0026  -0.0022   0.0075   0.0068  -0.0242
 107 N   :3d2+  -0.0169   0.0067  -0.0024   0.0002   0.0011   0.0085  -0.0172
 108 N   :3d0    0.0111   0.0057  -0.0170  -0.0047   0.0080   0.0122  -0.0127
 110 N   :3d2+   0.0337  -0.0066  -0.0034   0.0059   0.0015   0.0127  -0.0153
 112 O   :1s     0.4820  -0.2340   0.1414   0.1141  -0.1563   0.0991  -0.0071
 113 O   :1s     0.0424  -0.0098   0.0003   0.0163  -0.0151   0.0333  -0.0259
 114 O   :1s     0.0962  -0.0502   0.0241   0.0472  -0.0029   0.0378  -0.0133
 116 O   :2py   -0.0301   0.0195  -0.0180  -0.0193  -0.0578  -0.0090   0.1417
 117 O   :2pz   -0.0131   0.0325  -0.0506  -0.0793   0.0524  -0.1941   0.3398
 119 O   :2py   -0.0190   0.0069  -0.0049  -0.0094   0.0119  -0.0155   0.0115
 120 O   :2pz    0.0058  -0.0002  -0.0013   0.0077  -0.0118   0.0172  -0.0081
 122 O   :2py   -0.0138   0.0048   0.0014  -0.0071  -0.0036  -0.0107   0.0087
 123 O   :2pz   -0.0055  -0.0036   0.0048  -0.0017  -0.0009  -0.0154   0.0215
 131 O   :3d0   -0.0013   0.0018  -0.0025  -0.0025  -0.0016  -0.0035   0.0108
 134 H   :1s     0.0196   0.1065   0.2454  -0.2413  -0.0625  -0.0607  -0.1352
 135 H   :1s    -0.0156  -0.0393  -0.0653   0.0583   0.0091   0.0064   0.0579
 138 H   :2py   -0.0013  -0.0073  -0.0183   0.0179   0.0040   0.0030   0.0084
 139 H   :2pz   -0.0010  -0.0049  -0.0103   0.0087   0.0008  -0.0001   0.0022
 141 H   :2py    0.0013  -0.0039  -0.0125   0.0120   0.0053   0.0059  -0.0000
 142 H   :2pz    0.0024   0.0023  -0.0099   0.0128   0.0027  -0.0006   0.0006
 143 H   :1s     0.0827   0.1148  -0.1678  -0.1379  -0.3683   0.0470   0.1716
 144 H   :1s     0.0131  -0.0367  -0.0203  -0.0273  -0.0967   0.1429   0.0248
 145 H   :1s    -0.0035   0.0122   0.0215   0.0271   0.0257  -0.0576  -0.0118
 147 H   :2py   -0.0050  -0.0057   0.0092   0.0066   0.0107   0.0001  -0.0035
 150 H   :2py   -0.0116  -0.0005   0.0190   0.0110   0.0469  -0.0311  -0.0251
 151 H   :2pz    0.0085  -0.0015   0.0020  -0.0083  -0.0201   0.0124  -0.0022
 152 H   :1s     0.0424   0.1690   0.0419   0.2143  -0.0658  -0.3937  -0.1231
 153 H   :1s    -0.0255   0.0185   0.0661   0.0244   0.0511  -0.1807  -0.0807
 154 H   :1s     0.0113   0.0034  -0.0326  -0.0275  -0.0256   0.0586   0.0159
 156 H   :2py   -0.0024  -0.0094  -0.0027  -0.0103   0.0028   0.0107   0.0013
 159 H   :2py    0.0011  -0.0166  -0.0212  -0.0137  -0.0012   0.0725   0.0310
 160 H   :2pz    0.0043  -0.0063  -0.0069  -0.0065  -0.0014   0.0244   0.0058

    Orbital        15       16       17       18       19       20       21
   2 N   :1s     0.0202  -0.0350   0.0998   0.1485   0.0777   0.0196   0.0162
   3 N   :1s    -0.0026   0.0966   0.0335  -0.0145   0.0269   0.0082   0.0048
   4 N   :1s    -0.0560  -0.0197   0.1577  -0.0304   0.1522  -0.0472   0.0171
   5 N   :2px   -0.0143   0.0858   0.6128  -0.1642   0.4822  -0.0018   0.1009
   6 N   :2pz    0.0918  -0.3370  -0.0368  -0.5374  -0.0117   0.0010   0.0070
   7 N   :2px    0.0034  -0.0105   0.0318  -0.0186   0.0213   0.0009   0.0027
   8 N   :2pz   -0.0169   0.0664   0.0360   0.0982   0.0301  -0.0090   0.0046
   9 N   :2px   -0.0005   0.0186   0.0638  -0.0128   0.0651   0.0010   0.0187
  10 N   :2pz    0.0252  -0.0237  -0.0105  -0.0257  -0.0112   0.0025  -0.0005
  11 N   :3d0   -0.0037   0.0122   0.0053   0.0120   0.0029  -0.0004   0.0002
  14 N   :3d0    0.0007  -0.0217   0.0016  -0.0262  -0.0020  -0.0008  -0.0010
  15 N   :3d1+  -0.0004   0.0014  -0.0232   0.0059  -0.0020  -0.0001   0.0051
  16 N   :3d2+   0.0042  -0.0110  -0.0166  -0.0076  -0.0126   0.0020  -0.0022
  18 C   :1s    -0.1356   0.2098  -0.0551  -0.0263  -0.0344  -0.0064  -0.0047
  19 C   :1s     0.1072   0.3189  -0.0070   0.0370   0.0173   0.0458   0.0086
  20 C   :1s     0.6297   0.0936  -0.2948   0.2918  -0.1691   0.1130  -0.0105
  21 C   :2px   -0.0039   0.0374   0.3892  -0.0495  -0.0936   0.0055  -0.1299
  22 C   :2pz   -0.0319   0.2720   0.0398   0.5537   0.0259  -0.0109  -0.0002
  23 C   :2px   -0.0004   0.0005  -0.0712   0.0213   0.0032  -0.0017   0.0072
  24 C   :2pz   -0.0037  -0.0976   0.0175  -0.0598   0.0353  -0.0289   0.0168
  25 C   :2px    0.0005  -0.0232  -0.0329  -0.0119  -0.0248   0.0007   0.0040
  26 C   :2pz   -0.1461   0.0520  -0.0512  -0.0122  -0.0877   0.0320  -0.0084
  27 C   :3d0   -0.0019   0.0006   0.0039   0.0430   0.0013   0.0055  -0.0003
  28 C   :3d1+  -0.0010   0.0054   0.0195  -0.0028   0.0348  -0.0002   0.0115
  29 C   :3d2+  -0.0004  -0.0046   0.0044   0.0140   0.0039   0.0025   0.0009
  30 C   :3d0   -0.0093  -0.1580   0.0265  -0.0403   0.0089  -0.0025  -0.0052
  31 C   :3d1+   0.0003  -0.0101  -0.0466  -0.0044   0.0018  -0.0006   0.0185
  32 C   :3d2+  -0.0028  -0.0836   0.0104  -0.0390   0.0054   0.0010  -0.0000
  34 C   :1s     0.0809   0.3176  -0.0462  -0.1019  -0.0191   0.0697   0.0011
  35 C   :1s    -0.3118  -0.0678  -0.0783  -0.1598  -0.0584  -0.1401  -0.0212
  36 C   :1s    -0.5810  -0.0968   0.1538   0.0068   0.0635  -0.1905  -0.0032
  37 C   :2px   -0.0018   0.0043   0.1655   0.0002  -0.2990   0.0055   0.0566
  38 C   :2pz    0.1859   0.0884   0.0045   0.0277  -0.0035  -0.4990  -0.0070
  39 C   :2px    0.0016  -0.0041  -0.0196  -0.0068   0.0471  -0.0010  -0.0174
  40 C   :2pz   -0.1695   0.0097  -0.0108  -0.0074  -0.0050   0.0797  -0.0008
  41 C   :2px   -0.0014   0.0110   0.0100   0.0053   0.0242  -0.0007  -0.0219
  42 C   :2pz   -0.1737   0.1287  -0.0529  -0.0841  -0.0603   0.0523  -0.0049
  43 C   :3d0   -0.0021  -0.0230   0.0042   0.0120   0.0022   0.0320   0.0001
  44 C   :3d1+   0.0001   0.0003   0.0024  -0.0000  -0.0058  -0.0002  -0.0196
  45 C   :3d2+  -0.0012  -0.0109   0.0024   0.0059   0.0013   0.0111   0.0005
  46 C   :3d0    0.1528   0.0167   0.0125   0.0489   0.0059  -0.0042   0.0036
  47 C   :3d1+  -0.0024  -0.0012   0.0100   0.0007  -0.0422  -0.0007   0.0552
  48 C   :3d2+   0.0715   0.0125   0.0061   0.0252   0.0023  -0.0135  -0.0001
  50 C   :1s    -0.0139  -0.0502   0.0258   0.1214   0.0123  -0.0371  -0.0002
  51 C   :1s     0.0387  -0.1405   0.0304   0.0688  -0.0004  -0.0274  -0.0061
  52 C   :1s     0.7311  -0.0104  -0.0478   0.1168   0.0568  -0.0250   0.0148
  53 C   :2px    0.0010   0.0038   0.1325   0.0035  -0.2865   0.0020  -0.0768
  54 C   :2py   -0.1780  -0.0690  -0.0001  -0.0140  -0.0022   0.1459   0.0022
  55 C   :2pz    0.0604  -0.3073   0.0773   0.2560   0.0356   0.1382   0.0019
  56 C   :2px    0.0019  -0.0002  -0.0034  -0.0024   0.0517   0.0008  -0.0203
  57 C   :2py    0.0263   0.0433  -0.0092  -0.0043   0.0024  -0.0501   0.0016
  58 C   :2pz   -0.3081  -0.0073  -0.0441  -0.1419  -0.0411  -0.1066  -0.0165
  59 C   :2px    0.0007  -0.0052  -0.0011  -0.0048  -0.0109   0.0008   0.0120
  60 C   :2py   -0.0913  -0.0548   0.0405  -0.0124   0.0245  -0.0251  -0.0002
  61 C   :2pz    0.1331  -0.0572   0.0307   0.0646   0.0432  -0.0607   0.0048
  62 C   :3d2-  -0.0000  -0.0002  -0.0065   0.0001   0.0121  -0.0000  -0.0009
  64 C   :3d0   -0.0003  -0.0166   0.0026   0.0072   0.0012   0.0139   0.0001
  67 C   :3d2-  -0.0007  -0.0030   0.0032  -0.0030  -0.0112  -0.0004   0.0178
  68 C   :3d1-   0.0209   0.0240   0.0152   0.0328   0.0130   0.0200   0.0049
  69 C   :3d0   -0.0386   0.0139  -0.0094  -0.0188  -0.0100  -0.0502  -0.0046
  70 C   :3d1+   0.0009  -0.0014   0.0040  -0.0030   0.0102   0.0010  -0.0206
  71 C   :3d2+  -0.0178   0.0057  -0.0065  -0.0090  -0.0061  -0.0174  -0.0019
  73 C   :1s     0.0235  -0.1509   0.0181  -0.0086   0.0078   0.0719   0.0007
  74 C   :1s     0.1469  -0.0677   0.0537   0.0406   0.0479   0.0997   0.0184
  75 C   :1s    -0.7358  -0.0119   0.0865  -0.2229  -0.0390   0.0531  -0.0109
  76 C   :2px   -0.0004   0.0071   0.1715  -0.0092  -0.2811   0.0041  -0.1515
  77 C   :2py    0.0248   0.0976   0.0239   0.1526   0.0115  -0.0081  -0.0009
  78 C   :2pz   -0.0329   0.2750  -0.0785  -0.2762  -0.0354  -0.1162  -0.0010
  79 C   :2px   -0.0012  -0.0088  -0.0489   0.0027   0.0001  -0.0017   0.0293
  80 C   :2py   -0.0152  -0.0154  -0.0078  -0.0579  -0.0169   0.0073  -0.0078
  81 C   :2pz   -0.1616  -0.3114   0.0367   0.0086  -0.0088  -0.0401  -0.0162
  82 C   :2px   -0.0007   0.0081   0.0070   0.0090  -0.0079  -0.0008  -0.0163
  83 C   :2py    0.0902   0.0518  -0.0471   0.0472  -0.0247   0.0230   0.0002
  84 C   :2pz    0.1123  -0.0247   0.0273  -0.0052   0.0489  -0.0357   0.0064
  85 C   :3d2-   0.0002  -0.0012  -0.0123   0.0016   0.0061  -0.0002   0.0051
  87 C   :3d0    0.0011  -0.0047   0.0037   0.0207   0.0021   0.0018   0.0001
  88 C   :3d1+  -0.0002   0.0005   0.0009  -0.0009   0.0107   0.0000   0.0011
  89 C   :3d2+   0.0003  -0.0010   0.0023   0.0130   0.0010   0.0015  -0.0001
  90 C   :3d2-  -0.0002   0.0070   0.0129   0.0056   0.0045   0.0001  -0.0031
  91 C   :3d1-  -0.0046   0.0731   0.0012   0.0069   0.0084   0.0026   0.0053
  92 C   :3d0    0.0378   0.0127  -0.0091  -0.0453  -0.0046   0.0120  -0.0007
  93 C   :3d1+   0.0013  -0.0027   0.0205  -0.0061   0.0087   0.0012  -0.0066
  94 C   :3d2+   0.0205   0.0049   0.0000  -0.0162   0.0005   0.0072  -0.0006
  95 N   :1s    -0.0119  -0.0091   0.0014   0.0034   0.0007  -0.0027   0.0000
  96 N   :1s    -0.5444  -0.3198   0.0396   0.0845   0.0164  -0.0667  -0.0010
  97 N   :1s    -0.0708   0.0362  -0.0129  -0.0341  -0.0077   0.0742  -0.0005
  98 N   :1s    -0.1247   0.0549  -0.0725  -0.0851  -0.0600   0.0192  -0.0059
  99 N   :2px   -0.0028   0.0016   0.0823   0.0016  -0.1835  -0.0188   0.6433
 100 N   :2pz    0.1843  -0.0138  -0.0008  -0.0011   0.0004   0.6277   0.0199
 101 N   :2px    0.0016   0.0005  -0.0059   0.0007   0.0090   0.0025  -0.0542
 102 N   :2pz   -0.1035  -0.0014   0.0044   0.0138   0.0031  -0.1077  -0.0020
 103 N   :2px    0.0013  -0.0050  -0.0021  -0.0029  -0.0125  -0.0018   0.0496
 104 N   :2pz    0.0278  -0.0592   0.0122   0.0191   0.0148   0.0575   0.0018
 105 N   :3d0   -0.0275   0.0179  -0.0038  -0.0096  -0.0016   0.0352   0.0000
 106 N   :3d1+   0.0006  -0.0001   0.0029  -0.0000  -0.0023  -0.0002  -0.0171
 107 N   :3d2+  -0.0105   0.0129  -0.0026  -0.0059  -0.0009   0.0321   0.0008
 108 N   :3d0    0.0198   0.0202   0.0001  -0.0023   0.0005   0.0272   0.0018
 109 N   :3d1+  -0.0003  -0.0002   0.0118   0.0003  -0.0257  -0.0011   0.0352
 110 N   :3d2+  -0.0031   0.0106   0.0004   0.0007   0.0021   0.0138  -0.0001
 112 O   :1s     0.2762   0.0554  -0.0012   0.0052  -0.0001  -0.0349  -0.0004
 113 O   :1s     0.0689   0.0353  -0.0011   0.0009   0.0018   0.0488   0.0011
 114 O   :1s     0.0974   0.0057   0.0133   0.0226   0.0150   0.0704   0.0027
 115 O   :2px   -0.0025   0.0025   0.0169   0.0020  -0.0793   0.0016   0.3865
 116 O   :2py    0.3952   0.0468  -0.0014   0.0060   0.0017   0.1781   0.0023
 117 O   :2pz    0.1870  -0.2203   0.0410   0.0966   0.0145  -0.3858   0.0007
 118 O   :2px   -0.0006  -0.0006  -0.0019   0.0000   0.0025   0.0000  -0.0124
 119 O   :2py   -0.0357  -0.0190   0.0017   0.0020  -0.0003  -0.0391  -0.0007
 120 O   :2pz    0.0378   0.0145   0.0001  -0.0011   0.0009   0.0073   0.0001
 122 O   :2py    0.0020   0.0025  -0.0032  -0.0013  -0.0041  -0.0255  -0.0008
 123 O   :2pz    0.0287   0.0027   0.0008   0.0044  -0.0006  -0.0394  -0.0003
 124 O   :3d2-  -0.0001  -0.0001  -0.0015  -0.0000   0.0040   0.0001  -0.0171
 128 O   :3d2+   0.0124   0.0025  -0.0003  -0.0004   0.0000   0.0089  -0.0000
 129 O   :3d2-  -0.0000  -0.0000  -0.0026  -0.0000   0.0065   0.0002  -0.0201
 131 O   :3d0    0.0121  -0.0014   0.0005   0.0008   0.0003   0.0018   0.0003
 133 O   :3d2+   0.0102   0.0016  -0.0000  -0.0003   0.0000   0.0035  -0.0001
 134 H   :1s     0.0540  -0.1859  -0.1113  -0.1691  -0.0888   0.0056  -0.0175
 135 H   :1s    -0.0186   0.0718   0.0078   0.0299  -0.0021   0.0078   0.0018
 137 H   :2px    0.0008  -0.0017   0.0146  -0.0075   0.0122   0.0002   0.0029
 138 H   :2py   -0.0031   0.0112   0.0078   0.0063   0.0053  -0.0008   0.0008
 140 H   :2px    0.0004  -0.0011   0.0102  -0.0070   0.0094   0.0011   0.0027
 142 H   :2pz   -0.0017   0.0095   0.0059   0.0159   0.0078  -0.0026   0.0010
 143 H   :1s    -0.1614   0.0564  -0.0262  -0.0923  -0.0131   0.0024   0.0004
 144 H   :1s    -0.0989   0.0082   0.0045  -0.0184  -0.0094  -0.0539  -0.0057
 145 H   :1s     0.0379   0.0140  -0.0049   0.0066   0.0038   0.0050   0.0019
 149 H   :2px    0.0003   0.0005  -0.0042   0.0007   0.0072   0.0001  -0.0101
 150 H   :2py    0.0357   0.0002  -0.0010   0.0082   0.0013   0.0089   0.0010
 151 H   :2pz   -0.0294   0.0194  -0.0075  -0.0206  -0.0069  -0.0203  -0.0022
 152 H   :1s     0.0363   0.1389  -0.0111  -0.0330  -0.0038  -0.0483  -0.0008
 153 H   :1s     0.1248  -0.0005  -0.0277  -0.0237  -0.0014  -0.0038   0.0035
 154 H   :1s    -0.0422  -0.0076   0.0061  -0.0240  -0.0059  -0.0016  -0.0023
 158 H   :2px    0.0002  -0.0034  -0.0107  -0.0017  -0.0036  -0.0000  -0.0009
 159 H   :2py   -0.0269  -0.0131   0.0080  -0.0022  -0.0000   0.0053  -0.0016
 160 H   :2pz   -0.0185  -0.0149   0.0084   0.0275   0.0022   0.0011  -0.0005

    Orbital        22       23       24       25       26       27       28
   1 N   :1s     0.0009  -0.0005   0.0033   0.0020  -0.0048  -0.0093   0.0627
   2 N   :1s     0.0328  -0.0142   0.0444   0.0109  -0.0325  -0.0587   0.5181
   3 N   :1s    -0.0004  -0.0014  -0.0188   0.0025   0.0513   0.0602  -0.0702
   4 N   :1s     0.0472  -0.0134  -0.0024   0.0847   0.0205  -0.0739   0.1762
   5 N   :2px    0.1933  -0.0907   0.3048  -0.0016  -0.3074   0.0124  -0.2020
   6 N   :2pz    0.0193  -0.0099   0.0442  -0.0127  -0.0861   0.0532  -0.8821
   7 N   :2px    0.0197   0.0072  -0.0798  -0.0008   0.1545  -0.0069   0.2039
   8 N   :2pz    0.0115  -0.0006  -0.0052   0.0098   0.0205  -0.0217   0.5338
   9 N   :2px    0.0659  -0.0100   0.0201  -0.0012  -0.0142   0.0014   0.0466
  10 N   :2pz    0.0032   0.0013   0.0002  -0.0028  -0.0010   0.0138  -0.0085
  12 N   :3d1+   0.0078  -0.0023   0.0115   0.0005  -0.0245  -0.0003   0.0115
  13 N   :3d2+  -0.0002  -0.0001   0.0022   0.0012  -0.0072  -0.0028   0.0234
  14 N   :3d0   -0.0004   0.0002  -0.0023   0.0020   0.0033  -0.0136  -0.0587
  15 N   :3d1+   0.0120  -0.0033   0.0175  -0.0007  -0.0332   0.0011  -0.0224
  17 C   :1s    -0.0000   0.0003  -0.0011   0.0056  -0.0006   0.0050  -0.0484
  18 C   :1s    -0.0107   0.0034  -0.0070   0.0207  -0.0159   0.0807  -0.6107
  19 C   :1s    -0.0209  -0.0005  -0.0088   0.0216  -0.0203   0.7025  -0.1379
  20 C   :1s    -0.0917   0.0228  -0.0102  -0.1840   0.0089   0.6810  -0.0470
  21 C   :2px   -0.3872   0.1412  -0.5813   0.0009   0.6043  -0.0029  -0.0927
  22 C   :2pz    0.0021  -0.0047   0.0358  -0.0133  -0.0699   0.0006  -0.4839
  23 C   :2px    0.0004  -0.0079   0.0342  -0.0017  -0.1184   0.0022   0.0497
  24 C   :2pz    0.0363  -0.0058   0.0133  -0.0492   0.0071   0.0387   0.6996
  25 C   :2px   -0.0393  -0.0061   0.0049  -0.0012   0.0099  -0.0013  -0.0407
  26 C   :2pz   -0.0083   0.0066   0.0037  -0.1082  -0.0263  -0.0940  -0.0504
  27 C   :3d0   -0.0011   0.0007  -0.0022  -0.0065   0.0062   0.0074   0.0967
  28 C   :3d1+   0.0207  -0.0108   0.0243  -0.0003   0.0109   0.0005   0.0228
  29 C   :3d2+   0.0017  -0.0007   0.0017  -0.0065   0.0041  -0.0046   0.0620
  30 C   :3d0    0.0150  -0.0044   0.0212   0.0193  -0.0444  -0.1683  -0.3476
  31 C   :3d1+   0.0344  -0.0106   0.0692   0.0000  -0.0327  -0.0022  -0.0539
  32 C   :3d2+   0.0141  -0.0045   0.0187   0.0205  -0.0281  -0.1037  -0.1961
  33 C   :1s     0.0001   0.0002  -0.0012   0.0074   0.0005   0.0322  -0.0066
  34 C   :1s     0.0011   0.0016  -0.0104   0.0469  -0.0014   0.6145  -0.1726
  35 C   :1s    -0.0148   0.0085  -0.0243   0.1521   0.0827  -0.9940   0.8573
  36 C   :1s     0.0366  -0.0155   0.0291   0.8342  -0.0300  -0.9109  -0.4631
  37 C   :2px    0.5783  -0.0331  -0.8176   0.0019  -0.5262   0.0127   0.0555
  38 C   :2pz    0.0059  -0.0019  -0.0092  -0.0949   0.0000  -0.9157  -0.2398
  39 C   :2px    0.0210  -0.0204   0.1877   0.0000   0.1794  -0.0163  -0.0537
  40 C   :2pz   -0.0003   0.0025  -0.0050  -0.1043   0.0282   0.9737   0.4955
  41 C   :2px    0.0500   0.0164  -0.0119   0.0022  -0.0315  -0.0026   0.0304
  42 C   :2pz   -0.0059   0.0045  -0.0018  -0.2443  -0.0023  -0.0122   0.0394
  43 C   :3d0   -0.0002  -0.0008   0.0029   0.0271  -0.0032  -0.0457  -0.0077
  44 C   :3d1+   0.0037  -0.0407   0.0231  -0.0002   0.0568   0.0018  -0.0075
  45 C   :3d2+  -0.0002   0.0006  -0.0003   0.0067  -0.0068   0.0587  -0.1076
  46 C   :3d0    0.0005  -0.0000   0.0032  -0.0704   0.0091   0.1170   0.0822
  47 C   :3d1+   0.0306   0.0426  -0.0188   0.0003   0.0259   0.0002  -0.0283
  48 C   :3d2+  -0.0010  -0.0004   0.0005  -0.0681   0.0071   0.0781   0.0657
  49 C   :1s     0.0002  -0.0000   0.0005   0.0026  -0.0013  -0.0134  -0.0016
  50 C   :1s     0.0015  -0.0002   0.0046   0.0052  -0.0143  -0.1420  -0.0609
  51 C   :1s    -0.0019   0.0045  -0.0088  -0.1028   0.0250  -0.4177   0.0454
  52 C   :1s    -0.0285   0.0020  -0.0101  -0.0126   0.0406   0.5935   0.2419
  53 C   :2px    0.2121  -0.1624   0.4301   0.0012   0.4700   0.0038   0.0035
  54 C   :2py    0.0009  -0.0002  -0.0012  -0.0080  -0.0063   0.1105  -0.2246
  55 C   :2pz   -0.0000   0.0017  -0.0021  -0.0110  -0.0307   0.1331  -0.5265
  56 C   :2px   -0.0357  -0.0071  -0.0554  -0.0008  -0.0847  -0.0008   0.0234
  57 C   :2py    0.0013   0.0013  -0.0086  -0.0416   0.0397   0.1738   0.5688
  58 C   :2pz   -0.0086   0.0049  -0.0142   0.0645   0.0416  -0.8234   0.4620
  59 C   :2px    0.0124  -0.0148   0.0137  -0.0020   0.0045   0.0005  -0.0150
  60 C   :2py    0.0120  -0.0042   0.0040   0.1035  -0.0043  -0.1140  -0.0539
  61 C   :2pz   -0.0011  -0.0037   0.0032   0.1828   0.0064   0.0429  -0.0272
  62 C   :3d2-  -0.0205   0.0031   0.0295   0.0001   0.0045   0.0000   0.0018
  63 C   :3d1-  -0.0004   0.0003  -0.0016  -0.0063   0.0035   0.0147   0.0253
  64 C   :3d0   -0.0005   0.0003  -0.0007  -0.0061   0.0025   0.0371   0.0158
  65 C   :3d1+  -0.0234   0.0013   0.0470   0.0000  -0.0249   0.0007   0.0082
  66 C   :3d2+   0.0000   0.0002  -0.0016   0.0027   0.0006   0.0598  -0.0061
  67 C   :3d2-   0.0138   0.0137  -0.0094   0.0002   0.0127  -0.0025  -0.0121
  68 C   :3d1-   0.0044  -0.0017   0.0031  -0.0534  -0.0064   0.2987  -0.0388
  69 C   :3d0   -0.0031   0.0018  -0.0055  -0.0541   0.0203  -0.0421   0.2365
  70 C   :3d1+  -0.0164  -0.0233   0.0097   0.0010   0.0032  -0.0012   0.0161
  71 C   :3d2+  -0.0012   0.0011  -0.0026  -0.0183   0.0117  -0.0233   0.1337
  72 C   :1s    -0.0001  -0.0002   0.0009   0.0020   0.0002  -0.0019   0.0212
  73 C   :1s    -0.0016  -0.0014   0.0059   0.0105   0.0075   0.0278   0.2691
  74 C   :1s     0.0332  -0.0109   0.0356   0.0306  -0.0704   0.3867  -0.4765
  75 C   :1s     0.0475  -0.0022   0.0045  -0.1729  -0.0395  -0.5886  -0.0875
  76 C   :2px   -0.2673   0.0300   0.2230  -0.0030  -0.7528  -0.0053   0.0919
  77 C   :2py   -0.0016   0.0005  -0.0027   0.0029   0.0081   0.0195  -0.0405
  78 C   :2pz    0.0014   0.0013  -0.0035  -0.0249  -0.0196  -0.1068  -0.1632
  79 C   :2px    0.0135   0.0232  -0.0466   0.0011   0.2611  -0.0008  -0.0949
  80 C   :2py   -0.0143   0.0025  -0.0047   0.0602  -0.0189  -0.1708  -0.4244
  81 C   :2pz    0.0049   0.0018   0.0029  -0.0015   0.0086  -0.6001  -0.1228
  82 C   :2px   -0.0282   0.0132  -0.0198   0.0020   0.0139   0.0004   0.0099
  83 C   :2py   -0.0179   0.0044  -0.0039  -0.0631   0.0064   0.1141   0.0162
  84 C   :2pz    0.0051  -0.0034  -0.0003   0.0999   0.0140   0.0461   0.0157
  85 C   :3d2-   0.0130  -0.0082   0.0346   0.0001  -0.0263   0.0009   0.0127
  86 C   :3d1-  -0.0004   0.0003  -0.0006   0.0000   0.0020   0.0116   0.0385
  87 C   :3d0    0.0005  -0.0004   0.0018   0.0071  -0.0058   0.0077  -0.1013
  88 C   :3d1+  -0.0144   0.0160  -0.0670   0.0002   0.0061  -0.0006  -0.0072
  89 C   :3d2+  -0.0002   0.0002  -0.0013   0.0061   0.0005  -0.0024  -0.0277
  90 C   :3d2-  -0.0095   0.0010  -0.0169  -0.0002  -0.0148   0.0035   0.0320
  91 C   :3d1-  -0.0001  -0.0000  -0.0052  -0.0218   0.0070   0.2268   0.1050
  92 C   :3d0    0.0002  -0.0016   0.0054   0.0249  -0.0172   0.0579  -0.1818
  93 C   :3d1+  -0.0108  -0.0064  -0.0270   0.0007   0.0093  -0.0017   0.0230
  94 C   :3d2+   0.0000  -0.0009   0.0023   0.0127  -0.0103   0.0477  -0.1339
  95 N   :1s    -0.0001  -0.0002   0.0001  -0.0652   0.0020  -0.0432   0.0159
  96 N   :1s    -0.0010  -0.0022   0.0021  -0.8470   0.0112  -0.5670   0.0694
  97 N   :1s     0.0012   0.0007  -0.0029  -0.1862  -0.0056   0.3160  -0.0090
  98 N   :1s    -0.0151   0.0054  -0.0121  -0.8149   0.0100   0.5249   0.2162
  99 N   :2px   -0.0548   0.7457   0.2519  -0.0127   0.1216   0.0215   0.0009
 100 N   :2pz   -0.0002   0.0131   0.0084   0.7781   0.0036  -0.9844  -0.0609
 101 N   :2px    0.0234  -0.0705  -0.0578   0.0030  -0.0551  -0.0155  -0.0085
 102 N   :2pz    0.0009  -0.0013  -0.0036  -0.2812  -0.0062   0.7565   0.0180
 103 N   :2px   -0.0146  -0.0054   0.0353   0.0002   0.0242  -0.0014  -0.0178
 104 N   :2pz    0.0022  -0.0000  -0.0022  -0.0013  -0.0048   0.1243  -0.0389
 105 N   :3d0    0.0008   0.0004  -0.0011   0.0123  -0.0007   0.0318   0.0085
 106 N   :3d1+   0.0237   0.0033  -0.0357  -0.0012  -0.0329  -0.0017   0.0039
 107 N   :3d2+  -0.0003  -0.0000   0.0004  -0.0491   0.0003  -0.0716  -0.0181
 108 N   :3d0    0.0009   0.0000  -0.0003  -0.0091  -0.0005   0.1396   0.0214
 109 N   :3d1+   0.0260   0.0115  -0.0074   0.0004  -0.0071  -0.0025  -0.0037
 110 N   :3d2+  -0.0001  -0.0003  -0.0001   0.0296  -0.0018   0.1103  -0.0002
 111 O   :1s    -0.0000   0.0000  -0.0002   0.0160   0.0004   0.0131   0.0077
 112 O   :1s    -0.0005   0.0004  -0.0009   0.2937   0.0007   0.0747   0.0308
 113 O   :1s     0.0003   0.0001   0.0007   0.1212  -0.0049   0.0722  -0.0441
 114 O   :1s     0.0033  -0.0004   0.0020   0.2954  -0.0035  -0.1004  -0.0621
 115 O   :2px   -0.2001  -0.7634  -0.1201  -0.0020  -0.0377  -0.0023   0.0046
 116 O   :2py    0.0002  -0.0005  -0.0003  -0.8548   0.0010  -0.0745  -0.0157
 117 O   :2pz   -0.0050  -0.0119  -0.0028   0.1989  -0.0023   0.2536  -0.0166
 118 O   :2px   -0.0047   0.2545   0.0502  -0.0009   0.0273   0.0001  -0.0042
 119 O   :2py   -0.0001  -0.0001  -0.0001   0.2628   0.0014   0.1042   0.0442
 120 O   :2pz    0.0001   0.0039   0.0015  -0.0129  -0.0001  -0.1351   0.0085
 121 O   :2px   -0.0191   0.0143  -0.0138  -0.0005  -0.0035   0.0009   0.0036
 122 O   :2py   -0.0014   0.0002  -0.0003  -0.0365   0.0013   0.0265   0.0205
 123 O   :2pz   -0.0007   0.0002   0.0006   0.0280   0.0016  -0.0423   0.0110
 124 O   :3d2-   0.0046  -0.0177  -0.0130   0.0002  -0.0042   0.0004   0.0014
 125 O   :3d1-   0.0001  -0.0002  -0.0002  -0.0139  -0.0005  -0.0326  -0.0129
 126 O   :3d0   -0.0000   0.0001   0.0008   0.0010  -0.0006  -0.0161  -0.0089
 127 O   :3d1+  -0.0010   0.0071   0.0117   0.0002   0.0074  -0.0005  -0.0010
 128 O   :3d2+   0.0000  -0.0002  -0.0000   0.0074  -0.0004  -0.0480  -0.0051
 129 O   :3d2-   0.0040  -0.0200  -0.0108   0.0003  -0.0058   0.0001   0.0007
 130 O   :3d1-   0.0002  -0.0002  -0.0003  -0.0127  -0.0003   0.0112  -0.0077
 131 O   :3d0   -0.0001  -0.0001   0.0006   0.0106   0.0000   0.0021   0.0015
 132 O   :3d1+  -0.0047   0.0013   0.0110  -0.0001   0.0078  -0.0003  -0.0007
 134 H   :1s    -0.0369   0.0128  -0.0388  -0.0057   0.0401   0.0092   0.0040
 135 H   :1s    -0.0036  -0.0006   0.0086  -0.0047  -0.0090   0.0166  -0.0718
 141 H   :2py    0.0018  -0.0010   0.0015   0.0016  -0.0018  -0.0056   0.0182
 142 H   :2pz    0.0025  -0.0016   0.0042   0.0002  -0.0043  -0.0068   0.0361
 143 H   :1s     0.0012  -0.0001  -0.0006   0.0167   0.0001  -0.0754  -0.0212
 144 H   :1s    -0.0011   0.0003  -0.0010  -0.0640  -0.0061  -0.0743  -0.0913
 145 H   :1s    -0.0029   0.0004  -0.0002   0.0062   0.0031   0.0316  -0.0010
 146 H   :2px    0.0044  -0.0048   0.0113   0.0001   0.0168  -0.0001  -0.0016
 150 H   :2py    0.0002   0.0003  -0.0001   0.0065   0.0043   0.0258   0.0560
 151 H   :2pz   -0.0017   0.0007  -0.0015  -0.0086   0.0040  -0.0555   0.0383
 152 H   :1s    -0.0008   0.0005  -0.0013  -0.0002   0.0013  -0.0204   0.0426
 153 H   :1s     0.0058  -0.0035   0.0108   0.0306  -0.0029   0.0769   0.1430
 154 H   :1s     0.0068  -0.0004   0.0004  -0.0209  -0.0053  -0.0321   0.0120
 155 H   :2px   -0.0063   0.0014   0.0027   0.0000  -0.0111   0.0001   0.0006
 158 H   :2px   -0.0004  -0.0017   0.0090   0.0000   0.0075  -0.0003  -0.0183
 159 H   :2py   -0.0019   0.0007  -0.0021  -0.0037  -0.0021  -0.0051  -0.0820
 160 H   :2pz   -0.0008   0.0004  -0.0003  -0.0052   0.0001  -0.0309  -0.0143

    Orbital        29       30       31       32       33       34       35
   1 N   :1s    -0.0556   0.0011  -0.0016   0.0035   0.0053   0.0001   0.0238
   2 N   :1s    -0.4535   0.0043   0.0268   0.0496  -0.0181  -0.0337   0.1236
   3 N   :1s     0.1257  -0.0143   0.0229  -0.0122   0.1801   0.1135  -0.0310
   4 N   :1s    -0.1971   0.0158  -0.2888   0.1123   0.0614   0.2119   0.2399
   5 N   :2px    0.1544   0.0244   0.0760   0.0297  -0.1456  -0.1649   0.2864
   6 N   :2pz    0.6786   0.0042   0.0270  -0.0300  -0.1068  -0.0219  -0.0852
[...]
  99 H   :1s    -0.4650   0.0406  -0.0346   0.0292   0.1748  -0.0668   0.0602
 100 H   :1s    -0.0761   0.0197  -0.0379  -0.0025  -0.0098  -0.0545   0.0055
 101 H   :2px   -0.0004  -0.0075  -0.0291   0.0190   0.1058   0.0075   0.0262
 102 H   :2py   -0.0050  -0.0070   0.0213   0.0046   0.0224  -0.0110   0.0188
 103 H   :2pz   -0.0043   0.0055  -0.0330   0.0037   0.0286   0.0072   0.0003
 104 H   :2px   -0.0326   0.0069  -0.0205  -0.0020  -0.0019  -0.0038   0.0022
 105 H   :2py    0.1078  -0.0192   0.0501   0.0040   0.0316  -0.0144   0.0178
 106 H   :2pz    0.1094  -0.0071   0.0339  -0.0092  -0.0021  -0.0011  -0.0332
 107 H   :1s    -0.2314   0.0007   0.3710  -0.0437   0.0580   0.4348   0.2255
 108 H   :1s    -0.2441   0.0493   0.0790   0.1416  -0.0689   0.2374  -0.1510
 109 H   :1s     0.0476  -0.0086  -0.0144  -0.0321  -0.0027  -0.0168  -0.0400
 110 H   :2px    0.0118   0.0516   0.0098  -0.0052  -0.0260  -0.0038  -0.0055
 111 H   :2py    0.0306  -0.0079   0.0180   0.0016  -0.0001  -0.0100   0.0050
 112 H   :2pz    0.0097  -0.0072   0.0342   0.0082   0.0025   0.0165   0.0017
 113 H   :2px    0.0034   0.0222   0.0045   0.0014  -0.0006  -0.0015   0.0016
 114 H   :2py    0.1387  -0.0203   0.0101  -0.0665   0.0280  -0.0708   0.0490
 115 H   :2pz   -0.0199   0.0188  -0.0113  -0.0145   0.0328   0.1832  -0.0406
 116 H   :1s    -0.2135   0.0473  -0.0317  -0.0214   0.0025   0.5696  -0.3955
 117 H   :1s    -0.0263  -0.0186   0.3403   0.0566   0.1381   0.1065   0.0044
 118 H   :1s    -0.0070  -0.0127   0.1139   0.0677   0.0232   0.0260   0.0690
 119 H   :2px   -0.0178  -0.0851  -0.0098   0.0006  -0.0008   0.0004   0.0017
 120 H   :2py    0.0209  -0.0064   0.0057   0.0066   0.0013  -0.0097   0.0005
 121 H   :2pz   -0.0389   0.0084   0.0090  -0.0062  -0.0011  -0.0343   0.0173
 122 H   :2px   -0.0002  -0.0252  -0.0038  -0.0001  -0.0007   0.0006   0.0001
 123 H   :2py    0.0052  -0.0133  -0.1009   0.0151  -0.0200  -0.0673   0.0235
 124 H   :2pz    0.0003   0.0447  -0.1363  -0.0209  -0.0438  -0.0982  -0.0534

    Orbital        36       37       38       39       40       41       42
   1 N   :2py    0.4278  -0.0500  -0.2730  -0.0068  -0.0368   0.0036  -0.0036
   2 N   :2py   -0.6048   0.0190   0.7285   0.0848   0.0528  -0.0850  -0.2086
   3 N   :2py   -0.0468  -0.0003   0.1121   0.0017  -0.0375  -0.0455  -0.1284
   4 N   :3d2-  -0.0758   0.0087   0.0354   0.1083   0.0053  -0.0784  -0.0019
   5 N   :3d1-   0.1667   0.0174  -0.4731  -0.0079  -0.0865  -0.0053   0.1359
   6 N   :3d2-   0.0125   0.0149  -0.0911  -0.0120  -0.0183   0.0301   0.0212
   7 N   :3d1-   0.0121   0.0036  -0.0190   0.0328   0.0137  -0.0691  -0.0479
   8 C   :2py    0.1797   0.3081  -0.3983   0.0197  -0.0743  -0.0071   0.1667
   9 C   :2py   -1.0556  -0.7391  -4.1860   0.0066  -1.3146  -0.7288  -1.6813
  10 C   :2py   -0.4225   0.4522   0.8539   0.1600   0.8579   0.1267   0.2679
  11 C   :3d2-  -0.0058   0.0026   0.0028   0.0197   0.0030   0.2295  -0.0027
  12 C   :3d1-  -0.0563  -0.0121   0.0806  -0.0060   0.0116   0.0062   0.0369
  13 C   :3d2-  -0.0306  -0.0215   0.0739   0.1499   0.0160  -0.1795  -0.0306
  14 C   :3d1-   0.7260   0.1486   1.5959  -0.0187   0.7808   0.1472   0.8427
  15 C   :2py   -0.1075   0.2319  -0.2145   0.0130  -0.0197  -0.0019   0.0724
  16 C   :2py    1.3898   0.2224   3.9390   0.1353   0.6132   0.4847   3.6728
  17 C   :2py    0.4056   0.0240  -1.1883  -0.1356  -1.1719  -0.0969  -0.2940
  18 C   :3d2-  -0.0006   0.0007   0.0018  -0.0037  -0.0020  -0.2366  -0.0010
  19 C   :3d1-  -0.0710   0.0537  -0.2008  -0.0067  -0.0013   0.0035   0.2799
  20 C   :3d2-   0.0096   0.0049  -0.0142   0.0130  -0.0016   0.2593   0.0006
  21 C   :3d1-   0.6408   0.3427   1.2041   0.0645   0.2864   0.0949   1.2744
  22 C   :1s    -0.1131   0.0659  -0.0725  -0.0041  -0.0371   0.0039  -0.1234
  23 C   :1s    -0.6662   0.3780  -0.3156  -0.0207  -0.1769   0.0201  -0.6439
  24 C   :1s     0.0718  -0.9783  -0.8916  -0.1611  -0.2463   0.1750  -3.6123
  25 C   :1s     0.6636  -0.3250   1.0842   0.0466   0.9444   0.1057   1.3662
  26 C   :2px    0.0082  -0.0060  -0.0046   0.4201   0.0086   0.7658   0.0009
  27 C   :2py   -0.7025   0.5005  -0.0502   0.0115  -0.0115   0.0018   0.2261
  28 C   :2pz    0.4416  -0.1092   0.1775   0.0121   0.1034  -0.0034  -0.4901
  29 C   :2px   -0.0279  -0.0012  -0.0251  -0.4379  -0.0192  -0.8636  -0.0448
  30 C   :2py    1.6124  -0.3345   1.9617   0.0457   0.6435   0.2127   3.0896
  31 C   :2pz    0.1762   0.4945   1.7304   0.0242  -0.4537   0.5053  -0.5825
  32 C   :2px   -0.0025   0.0052   0.0244  -0.0957   0.0072   0.0275   0.0019
  33 C   :2py    0.1752  -0.1293  -0.1305  -0.0531   0.0225  -0.0334   0.6281
  34 C   :2pz    0.4638  -0.0394  -0.5414  -0.0955  -0.2682  -0.0454   0.2908
  35 C   :3d2-   0.0057  -0.0059  -0.0140   0.3331  -0.0003  -0.1530   0.0063
  36 C   :3d1-   0.0333  -0.1910   0.0346  -0.0105   0.0301   0.0061   0.2392
  37 C   :3d0    0.0716  -0.0626  -0.0112  -0.0038   0.0503   0.0038  -0.3043
  38 C   :3d1+  -0.0045   0.0055   0.0118  -0.2028   0.0010   0.2029  -0.0041
  39 C   :3d2+   0.1092  -0.0589   0.1166   0.0019   0.1105  -0.0024   0.1750
  40 C   :3d2-   0.0123   0.0064   0.0000   0.0493   0.0009   0.1410   0.0127
  41 C   :3d1-   0.0769   0.1310  -0.3146  -0.0080   0.1174  -0.1039  -0.2295
  42 C   :3d0    0.2595   0.2019   0.5649   0.0248  -0.1797   0.1183  -0.1125
  43 C   :3d1+  -0.0026   0.0005  -0.0127  -0.0382  -0.0037   0.1470  -0.0093
  44 C   :3d2+   0.1182   0.1000   0.1968   0.0071  -0.0859   0.0680   0.0738
  45 C   :1s     0.0517   0.0803   0.1284   0.0033   0.0258  -0.0025   0.0759
  46 C   :1s     0.3241   0.4998   0.6206   0.0132   0.1380  -0.0121   0.4048
  47 C   :1s     0.3467  -0.6526   1.0560  -0.0935   1.6533   0.0203   2.0314
  48 C   :1s    -0.6347  -0.4806  -0.5541  -0.0624  -0.8677  -0.1191  -1.3491
  49 C   :2px    0.0066  -0.0154  -0.0247   0.6275  -0.0029  -0.3805   0.0024
  50 C   :2py    0.4491   0.8134  -0.2057   0.0164  -0.0651  -0.0159  -0.0801
  51 C   :2pz    0.2468   0.2546   0.4391   0.0126   0.0987  -0.0007  -0.6007
  52 C   :2px    0.0435   0.0376   0.0529  -0.8042   0.0167   0.4107   0.0600
  53 C   :2py   -1.2125  -1.3782  -2.3205  -0.0038  -1.0189  -0.3120  -2.1631
  54 C   :2pz    0.4706  -0.0992   1.4852  -0.0430  -0.1636   0.5797  -0.9054
  55 C   :2px    0.0052  -0.0072  -0.0305  -0.0727  -0.0150  -0.0984  -0.0031
  56 C   :2py   -0.0750   0.0330  -0.0799   0.0374   0.0529   0.0192  -0.5537
  57 C   :2pz    0.5333  -0.2877  -0.5182  -0.1047  -0.3682  -0.0413   0.4017
  58 C   :3d2-  -0.0040   0.0008  -0.0028   0.1395   0.0011   0.2347  -0.0043
  59 C   :3d1-  -0.0262   0.1970   0.0169   0.0084  -0.0105  -0.0014   0.2187
  60 C   :3d0    0.0475  -0.0544  -0.1749  -0.0126  -0.0025   0.0002   0.3674
  61 C   :3d1+   0.0042  -0.0034  -0.0012   0.0929   0.0041   0.2824   0.0009
  62 C   :3d2+   0.0086  -0.0547  -0.3518  -0.0132  -0.0785   0.0056  -0.0599
  63 C   :3d2-  -0.0174  -0.0113  -0.0058   0.1340  -0.0038  -0.0934  -0.0186
  64 C   :3d1-   0.1383  -0.1540  -0.4624  -0.0010   0.0280  -0.1379   0.0405
  65 C   :3d0   -0.3727  -0.0060  -0.4568   0.0339  -0.1438  -0.1426   0.2813
  66 C   :3d1+   0.0015   0.0068  -0.0291  -0.0292  -0.0079   0.1569  -0.0031
  67 C   :3d2+  -0.1390  -0.0248  -0.2690   0.0161  -0.0557  -0.0747   0.0444
  68 N   :2py    0.0228  -0.0275   0.0414   0.0003  -0.2357   0.0035   0.1720
  69 N   :2py    0.1059   0.0825   0.1386   0.0119   0.0977  -0.0147   0.2369
  70 N   :2py   -0.0093   0.0177   0.2688   0.0091   0.8088   0.0016   0.2456
  71 N   :3d2-   0.0005  -0.0002   0.0017  -0.0049  -0.0014   0.0426   0.0011
  72 N   :3d1-  -0.0173   0.0244  -0.0678  -0.0022   0.0943   0.0014  -0.0694
  73 N   :3d2-  -0.0060  -0.0039  -0.0000   0.0421  -0.0033  -0.1948   0.0011
  74 N   :3d1-   0.0138   0.0171  -0.1889  -0.0012   0.0264  -0.0112  -0.3485
  75 O   :1s    -0.0018   0.0044  -0.0184  -0.0008   0.1845  -0.0027  -0.0076
  76 O   :1s    -0.0187   0.0288  -0.0906  -0.0036   0.8483  -0.0120  -0.0543
  77 O   :1s    -0.0019  -0.0149  -0.0370   0.0009  -0.8653   0.0145  -0.2460
  78 O   :1s    -0.0016  -0.0277  -0.2089  -0.0064  -0.7413   0.0067  -0.1400
  79 O   :2px   -0.0025   0.0003  -0.0033   0.0165  -0.0035  -0.1301   0.0034
  80 O   :2py    0.1198  -0.0643   0.1336   0.0041  -0.4491   0.0020   0.0693
  81 O   :2pz    0.1403  -0.0532   0.0592   0.0035   0.1285  -0.0071  -0.0999
  82 O   :2px    0.0070   0.0008   0.0068  -0.0431   0.0056   0.2837  -0.0039
  83 O   :2py   -0.1956   0.1084  -0.1183  -0.0038   0.7165  -0.0043   0.1191
  84 O   :2pz   -0.2611   0.1041  -0.1139  -0.0072  -0.1394   0.0162   0.1977
  85 O   :2px    0.0003  -0.0006  -0.0020   0.0053   0.0001   0.0353  -0.0033
  86 O   :2py   -0.0398   0.0106  -0.0166  -0.0011   0.0928   0.0021   0.0238
  87 O   :2pz   -0.0570   0.0142  -0.0618  -0.0031  -0.0434   0.0033   0.0135
  88 O   :3d2-   0.0000   0.0002  -0.0022   0.0184   0.0090   0.0253  -0.0008
  89 O   :3d1-   0.0115  -0.0104   0.1087   0.0041  -0.4988   0.0043   0.0318
  90 O   :3d0   -0.0099   0.0002  -0.0894  -0.0038   0.0536   0.0049   0.1085
  91 O   :3d1+   0.0007  -0.0003   0.0016   0.0233  -0.0007   0.0725  -0.0025
  92 O   :3d2+   0.0059  -0.0081  -0.0474  -0.0022   0.0180   0.0004   0.0752
  93 O   :3d2-  -0.0012  -0.0004  -0.0015   0.0188   0.0025  -0.0304  -0.0010
  94 O   :3d1-   0.0211  -0.0128   0.0377   0.0021  -0.1638  -0.0006   0.0096
  95 O   :3d0   -0.0249   0.0058  -0.0464  -0.0027   0.0436   0.0040   0.0788
  96 O   :3d1+   0.0011   0.0005   0.0008   0.0029   0.0011   0.0633  -0.0022
  97 O   :3d2+  -0.0069   0.0084  -0.0297  -0.0009   0.1065  -0.0016   0.0475
  98 H   :1s     0.0429   0.1238  -0.2614  -0.0800  -0.0490   0.1181   0.1070
  99 H   :1s    -0.0484  -0.1085  -0.3328   0.0136  -0.1427   0.0160  -0.1724
 100 H   :1s     0.0313  -0.0310  -0.1690  -0.0098  -0.0607  -0.0103  -0.0817
 101 H   :2px   -0.0070   0.0025  -0.0071   0.0222  -0.0010  -0.0301   0.0112
 102 H   :2py   -0.0208  -0.0079   0.0429   0.0108   0.0072  -0.0129  -0.0245
 103 H   :2pz    0.0112   0.0035  -0.0364   0.0034  -0.0058  -0.0007   0.0233
 104 H   :2px    0.0087  -0.0068  -0.0396  -0.0102  -0.0089  -0.0082   0.0074
 105 H   :2py   -0.0370  -0.0188   0.1566   0.0174   0.0529  -0.0251  -0.0228
 106 H   :2pz    0.0042   0.0392   0.1511   0.0028   0.0575  -0.0015   0.0862
 107 H   :1s     0.5472  -0.0971  -0.2367   0.0055  -0.0106  -0.0134  -0.5610
 108 H   :1s    -0.4225   0.5356  -0.3011   0.0007  -0.6130  -0.0070  -1.6981
 109 H   :1s     0.0364   0.0275  -0.0888  -0.0023  -0.0935   0.0026  -0.2012
 110 H   :2px    0.0019  -0.0020  -0.0061   0.1099  -0.0007  -0.0943   0.0016
 111 H   :2py    0.0014  -0.0198   0.0272  -0.0002  -0.0042   0.0012   0.0765
 112 H   :2pz   -0.0222   0.0058  -0.0043   0.0002  -0.0099  -0.0004   0.0365
 113 H   :2px   -0.0033  -0.0012  -0.0045   0.0092  -0.0016  -0.0409  -0.0074
 114 H   :2py    0.0910  -0.1391   0.0709  -0.0030   0.0954   0.0158   0.4555
 115 H   :2pz   -0.0379   0.0540  -0.0063   0.0047  -0.1837   0.0200  -0.2855
 116 H   :1s    -0.2644  -0.2190   0.1142   0.0008   0.0631   0.0256   0.6581
 117 H   :1s    -0.0167   0.7196   0.6644   0.0418   0.3363   0.0450   1.2482
 118 H   :1s    -0.1111   0.0563   0.2578   0.0128   0.0672   0.0104   0.1592
 119 H   :2px   -0.0002   0.0005   0.0014   0.0083   0.0012   0.1335  -0.0011
 120 H   :2py   -0.0152  -0.0375   0.0197   0.0003   0.0001  -0.0012  -0.1117
 121 H   :2pz   -0.0147  -0.0233  -0.0517  -0.0024  -0.0060  -0.0006   0.0659
 122 H   :2px    0.0010   0.0020   0.0072  -0.0392   0.0021   0.0331   0.0001
 123 H   :2py   -0.0127  -0.2219  -0.1465  -0.0048  -0.0697  -0.0248  -0.3711
 124 H   :2pz    0.0176  -0.0922  -0.0560  -0.0149  -0.0370   0.0231  -0.2900

    Orbital        43       44       45       46       47
   1 N   :2py   -0.0038   0.1803  -0.3033   0.0148   0.1362
   2 N   :2py    0.1175  -0.6068  -0.7076  -0.0978   0.0391
   3 N   :2py    0.0150   0.2523   0.0969   0.0548   0.1249
   4 N   :3d2-   0.0055  -0.0274   0.0577   0.0133  -0.0067
   5 N   :3d1-  -0.1299   0.0517   0.1610  -0.1150   0.0494
   6 N   :3d2-  -0.0279  -0.0263   0.1573  -0.0141  -0.0446
   7 N   :3d1-   0.0159   0.2804   0.1167   0.0744   0.1231
   8 C   :2py   -0.0816  -0.0374  -0.6267   0.0221   0.5675
   9 C   :2py   -1.5617  -4.0820  -2.1493  -0.7144   0.4876
  10 C   :2py    0.0707  -2.5881   0.3836  -0.4036  -0.7600
  11 C   :3d2-   0.0001  -0.0126   0.0524   0.0276  -0.2436
  12 C   :3d1-  -0.1099   0.1827   1.1569  -0.0057  -0.1153
  13 C   :3d2-   0.0304   0.0581  -0.0255   0.0435  -0.0335
  14 C   :3d1-   0.6623   3.4858   1.2540   0.8232  -0.3044
  15 C   :2py    0.8207   0.1098   0.3624   0.3839   0.5640
  16 C   :2py    3.1936   5.7495   1.5800  -3.5934   0.7843
  17 C   :2py    0.5269   2.0561  -1.0503   1.9532  -0.5212
  18 C   :3d2-  -0.0040  -0.0260   0.0438   0.0291  -0.2376
  19 C   :3d1-   0.7811   0.2811   0.0269   0.0094  -0.0704
  20 C   :3d2-  -0.0129  -0.0358   0.0280   0.0169  -0.0393
  21 C   :3d1-   1.2241   3.6537   0.5763  -2.6484  -0.4811
  22 C   :1s    -0.0254  -0.2075  -0.0429   0.1113  -0.0143
  23 C   :1s    -0.1570  -1.0656  -0.1791   0.4262   0.0067
  24 C   :1s    -1.2497  -6.5406   0.2915   2.1353   0.9976
  25 C   :1s    -0.2891  -2.2697   0.3380  -2.5149   1.0920
  26 C   :2px   -0.0057   0.0179  -0.0185  -0.0084   0.0648
  27 C   :2py    0.4937   0.2967   0.0912  -0.1142   0.1944
  28 C   :2pz    0.5495  -0.1793  -0.1229  -0.0747  -0.2299
  29 C   :2px   -0.0058  -0.0704  -0.0204   0.0000   0.0461
  30 C   :2py    1.8637   3.2375   1.4046  -2.6410   1.1802
  31 C   :2pz    1.7822   0.7976   1.3900  -0.8371   0.8525
  32 C   :2px    0.0028   0.0110   0.0049   0.0001   0.0060
  33 C   :2py    0.1305   0.9057  -0.3931   0.7566   0.0807
  34 C   :2pz    0.1935   1.2113  -0.6858   0.6569  -0.0575
  35 C   :3d2-   0.0011  -0.0061   0.0191   0.0138  -0.1041
  36 C   :3d1-  -0.1199  -0.4188  -0.2584   0.0091  -0.3411
  37 C   :3d0    0.2711  -0.4648   0.0974  -0.0100   0.1523
  38 C   :3d1+   0.0006   0.0032   0.0107   0.0128  -0.0910
  39 C   :3d2+   0.2629   0.0787   0.0064   0.2207  -0.0614
  40 C   :3d2-   0.0045   0.0064   0.0264  -0.0023  -0.0535
  41 C   :3d1-  -0.5466   1.1207  -0.1399  -0.0559  -0.6307
  42 C   :3d0    0.7677   0.7746   0.4521  -1.0436   0.1907
  43 C   :3d1+  -0.0012  -0.0421   0.0087  -0.0049   0.0152
  44 C   :3d2+   0.5248   0.3866   0.2331  -0.3501   0.0032
  45 C   :1s    -0.0002   0.1991  -0.0058   0.1118  -0.0533
  46 C   :1s    -0.0325   1.0379   0.0399   0.4473  -0.1865
  47 C   :1s    -0.9104   5.4584   1.3748   1.7290  -0.5483
  48 C   :1s    -0.6625   2.8633   0.5741  -0.0010   1.0115
  49 C   :2px   -0.0007  -0.0054   0.0176  -0.0080   0.0689
  50 C   :2py   -0.0120  -0.0854  -0.6913  -0.1867   0.3075
  51 C   :2pz    0.2434  -0.1883   0.3598  -0.0032   0.2890
  52 C   :2px    0.0069   0.0915   0.0225  -0.0137  -0.0038
  53 C   :2py   -0.8079  -2.6009  -1.8514  -0.0261   1.5672
  54 C   :2pz    1.5890   0.5811   1.0305  -1.1054   0.2557
  55 C   :2px   -0.0053  -0.0003  -0.0111  -0.0045   0.0116
  56 C   :2py    0.0742  -0.9378   0.3111  -0.4147  -0.1486
  57 C   :2pz    0.1379   1.3193  -0.6830   0.2460   0.2983
  58 C   :3d2-   0.0008  -0.0175   0.0145   0.0106  -0.0894
  59 C   :3d1-  -0.1561  -0.3307  -0.1923  -0.2292   0.4493
  60 C   :3d0   -0.1547   0.4237   0.0190   0.0661   0.0346
  61 C   :3d1+  -0.0006   0.0304  -0.0283  -0.0085   0.0868
  62 C   :3d2+   0.0132  -0.1192  -0.1176   0.1311  -0.1248
  63 C   :3d2-  -0.0019  -0.0178  -0.0227   0.0114  -0.0446
  64 C   :3d1-  -0.1368   1.2751  -0.4379  -0.1081   0.2577
  65 C   :3d0   -0.5339  -0.6716  -0.6346   0.0033   0.1556
  66 C   :3d1+  -0.0098  -0.0596   0.0175  -0.0170   0.0028
  67 C   :3d2+  -0.2170  -0.4020  -0.5018   0.1555  -0.0128
  68 N   :2py    0.4363  -0.1167   0.0536   0.9270   0.4928
  69 N   :2py    0.1950   0.9028   0.0259  -1.7152  -0.6243
  70 N   :2py   -0.1525   0.1124   0.1799  -0.3993   0.2465
  71 N   :3d2-   0.0075  -0.0017   0.0067  -0.0043  -0.0582
  72 N   :3d1-  -0.4475   0.0293  -0.0579   0.5985   0.0046
  73 N   :3d2-   0.0051  -0.0181   0.0069   0.0147  -0.0664
  74 N   :3d1-  -0.2295   0.1239  -0.1356  -0.0436  -0.4094
  75 O   :1s    -0.0142   0.0015  -0.0048   0.1987   0.0841
  76 O   :1s    -0.1271   0.0039  -0.0260   0.8525   0.3362
  77 O   :1s    -0.3171  -0.1026  -0.0581  -0.6023  -0.5634
  78 O   :1s     0.0325   0.0396  -0.1231  -0.0301  -0.3341
  79 O   :2px    0.0033  -0.0016   0.0034  -0.0012  -0.0156
  80 O   :2py    0.2752  -0.0300   0.0265  -0.4585  -0.0738
  81 O   :2pz   -0.1801  -0.0226  -0.0133   0.1915   0.0455
  82 O   :2px   -0.0043   0.0115  -0.0108  -0.0072   0.0817
  83 O   :2py    0.0335   0.1179   0.0411   0.5739   0.3206
  84 O   :2pz    0.2166   0.0045   0.0453  -0.2947  -0.0498
  85 O   :2px   -0.0018  -0.0045  -0.0021  -0.0021   0.0152
  86 O   :2py    0.0328  -0.0590  -0.0083   0.1413   0.1056
  87 O   :2pz    0.0331   0.0488  -0.0123  -0.0464  -0.0189
  88 O   :3d2-   0.0002  -0.0021   0.0048  -0.0000  -0.0394
  89 O   :3d1-  -0.0152   0.0090  -0.0068   0.2384   0.0592
  90 O   :3d0    0.2223  -0.0230   0.0250  -0.0495   0.0432
  91 O   :3d1+  -0.0029   0.0026  -0.0064  -0.0001   0.0448
  92 O   :3d2+   0.2216  -0.0624   0.0290   0.1929   0.1470
  93 O   :3d2-  -0.0009  -0.0041   0.0029   0.0018  -0.0277
  94 O   :3d1-   0.0514   0.0180  -0.0012   0.1339   0.0528
  95 O   :3d0    0.1399  -0.0159   0.0311  -0.0668   0.0521
  96 O   :3d1+  -0.0023   0.0022  -0.0027   0.0006   0.0186
  97 O   :3d2+   0.1288   0.0119   0.0215   0.0922   0.0830
  98 H   :1s    -0.0857  -0.2144   0.7682   0.0111  -0.3000
  99 H   :1s    -0.0737  -0.7068  -0.5692  -0.2188   0.1317
 100 H   :1s    -0.0338   0.0421   0.0434  -0.0069  -0.0051
 101 H   :2px   -0.0063  -0.0040   0.0399  -0.0060   0.0115
 102 H   :2py    0.0214   0.0230  -0.1562   0.0111   0.0450
 103 H   :2pz   -0.0169   0.0162   0.0466  -0.0046   0.0106
 104 H   :2px   -0.0084  -0.0462  -0.0293  -0.0145   0.0011
 105 H   :2py    0.0595   0.2201  -0.0537   0.0682   0.0452
 106 H   :2pz    0.0249   0.2226   0.0250   0.0673  -0.0387
 107 H   :1s     0.0884   0.4042  -0.4543   0.5451  -1.3664
 108 H   :1s    -0.3480   1.1058  -0.2347   0.3290  -0.5757
 109 H   :1s    -0.0663  -0.0205   0.0037  -0.2925  -0.0560
 110 H   :2px    0.0005   0.0008  -0.0003  -0.0020   0.0199
 111 H   :2py   -0.0989  -0.0869   0.0400  -0.0751   0.1594
 112 H   :2pz   -0.1216   0.0197  -0.0486  -0.0378  -0.0800
 113 H   :2px   -0.0021  -0.0033  -0.0079   0.0003   0.0225
 114 H   :2py    0.1489  -0.4295   0.1462  -0.2231   0.3786
 115 H   :2pz    0.1172   0.1141  -0.1005  -0.0561  -0.0768
 116 H   :1s     0.1415  -0.8122   0.4973   0.6538  -1.5125
 117 H   :1s    -0.0304  -1.2294   0.0637   0.1837  -0.4098
 118 H   :1s    -0.0539   0.0510   0.0270   0.1019   0.0499
 119 H   :2px    0.0003   0.0026  -0.0112  -0.0031   0.0205
 120 H   :2py   -0.0028   0.1215   0.0467  -0.0566   0.1493
 121 H   :2pz   -0.0312   0.0475  -0.2016  -0.0281   0.0794
 122 H   :2px    0.0028   0.0070  -0.0022  -0.0001   0.0248
 123 H   :2py   -0.0270   0.5064  -0.1843  -0.0906   0.3519
 124 H   :2pz   -0.0072   0.1619   0.0680  -0.0504   0.0910

  Total CPU  time used in SIRIUS :  9 minutes 49 seconds
  Total wall time used in SIRIUS :  5 minutes  2 seconds

 
     Date and time (Linux)  : Thu Dec 14 01:14:58 2017
     Host name              : s81p34.deic.sdu.dk                      


                     .---------------------------------------.
                     | End of Wave Function Section (SIRIUS) |
                     `---------------------------------------'

  Total CPU  time used in DALTON: 11 minutes 42 seconds
  Total wall time used in DALTON:  6 minutes 43 seconds

 
     Date and time (Linux)  : Thu Dec 14 01:14:58 2017
     Host name              : s81p34.deic.sdu.dk                      
