

     ************************************************************************
     *************** Dalton - An Electronic Structure Program ***************
     ************************************************************************

    This is output from DALTON release Dalton2017.alpha (2017)
         ( Web site: http://daltonprogram.org )

   ----------------------------------------------------------------------------

    NOTE:
     
    Dalton is an experimental code for the evaluation of molecular
    properties using (MC)SCF, DFT, CI, and CC wave functions.
    The authors accept no responsibility for the performance of
    the code or for the correctness of the results.
     
    The code (in whole or part) is provided under a licence and
    is not to be reproduced for further distribution without
    the written permission of the authors or their representatives.
     
    See the home page "http://daltonprogram.org" for further information.
     
    If results obtained with this code are published,
    the appropriate citations would be both of:
     
       K. Aidas, C. Angeli, K. L. Bak, V. Bakken, R. Bast,
       L. Boman, O. Christiansen, R. Cimiraglia, S. Coriani,
       P. Dahle, E. K. Dalskov, U. Ekstroem,
       T. Enevoldsen, J. J. Eriksen, P. Ettenhuber, B. Fernandez,
       L. Ferrighi, H. Fliegl, L. Frediani, K. Hald, A. Halkier,
       C. Haettig, H. Heiberg, T. Helgaker, A. C. Hennum,
       H. Hettema, E. Hjertenaes, S. Hoest, I.-M. Hoeyvik,
       M. F. Iozzi, B. Jansik, H. J. Aa. Jensen, D. Jonsson,
       P. Joergensen, J. Kauczor, S. Kirpekar,
       T. Kjaergaard, W. Klopper, S. Knecht, R. Kobayashi, H. Koch,
       J. Kongsted, A. Krapp, K. Kristensen, A. Ligabue,
       O. B. Lutnaes, J. I. Melo, K. V. Mikkelsen, R. H. Myhre,
       C. Neiss, C. B. Nielsen, P. Norman, J. Olsen,
       J. M. H. Olsen, A. Osted, M. J. Packer, F. Pawlowski,
       T. B. Pedersen, P. F. Provasi, S. Reine, Z. Rinkevicius,
       T. A. Ruden, K. Ruud, V. Rybkin, P. Salek, C. C. M. Samson,
       A. Sanchez de Meras, T. Saue, S. P. A. Sauer,
       B. Schimmelpfennig, K. Sneskov, A. H. Steindal,
       K. O. Sylvester-Hvid, P. R. Taylor, A. M. Teale,
       E. I. Tellgren, D. P. Tew, A. J. Thorvaldsen, L. Thoegersen,
       O. Vahtras, M. A. Watson, D. J. D. Wilson, M. Ziolkowski
       and H. Agren,
       "The Dalton quantum chemistry program system",
       WIREs Comput. Mol. Sci. 2014, 4:269–284 (doi: 10.1002/wcms.1172)
     
    and
     
       Dalton, a Molecular Electronic Structure Program,
       Release Dalton2017.alpha (2017), see http://daltonprogram.org
   ----------------------------------------------------------------------------

    Authors in alphabetical order (major contribution(s) in parenthesis):

  Kestutis Aidas,           Vilnius University,           Lithuania   (QM/MM)
  Celestino Angeli,         University of Ferrara,        Italy       (NEVPT2)
  Keld L. Bak,              UNI-C,                        Denmark     (AOSOPPA, non-adiabatic coupling, magnetic properties)
  Vebjoern Bakken,          University of Oslo,           Norway      (DALTON; geometry optimizer, symmetry detection)
  Radovan Bast,             UiT The Arctic U. of Norway,  Norway      (DALTON installation and execution frameworks)
  Pablo Baudin,             University of Valencia,       Spain       (Cholesky excitation energies)
  Linus Boman,              NTNU,                         Norway      (Cholesky decomposition and subsystems)
  Ove Christiansen,         Aarhus University,            Denmark     (CC module)
  Renzo Cimiraglia,         University of Ferrara,        Italy       (NEVPT2)
  Sonia Coriani,            University of Trieste,        Italy       (CC module, MCD in RESPONS)
  Janusz Cukras,            University of Trieste,        Italy       (MChD in RESPONS)
  Paal Dahle,               University of Oslo,           Norway      (Parallelization)
  Erik K. Dalskov,          UNI-C,                        Denmark     (SOPPA)
  Thomas Enevoldsen,        Univ. of Southern Denmark,    Denmark     (SOPPA)
  Janus J. Eriksen,         Aarhus University,            Denmark     (Polarizable embedding model, TDA)
  Rasmus Faber,             University of Copenhagen,     Denmark     (Vib.avg. NMR with SOPPA, parallel AO-SOPPA)
  Berta Fernandez,          U. of Santiago de Compostela, Spain       (doublet spin, ESR in RESPONS)
  Lara Ferrighi,            Aarhus University,            Denmark     (PCM Cubic response)
  Heike Fliegl,             University of Oslo,           Norway      (CCSD(R12))
  Luca Frediani,            UiT The Arctic U. of Norway,  Norway      (PCM)
  Bin Gao,                  UiT The Arctic U. of Norway,  Norway      (Gen1Int library)
  Christof Haettig,         Ruhr-University Bochum,       Germany     (CC module)
  Kasper Hald,              Aarhus University,            Denmark     (CC module)
  Asger Halkier,            Aarhus University,            Denmark     (CC module)
  Frederik Beyer Hansen,    University of Copenhagen,     Denmark     (Parallel AO-SOPPA)
  Erik D. Hedegaard,        Univ. of Southern Denmark,    Denmark     (Polarizable embedding model, QM/MM)
  Hanne Heiberg,            University of Oslo,           Norway      (geometry analysis, selected one-electron integrals)
  Trygve Helgaker,          University of Oslo,           Norway      (DALTON; ABACUS, ERI, DFT modules, London, and much more)
  Alf Christian Hennum,     University of Oslo,           Norway      (Parity violation)
  Hinne Hettema,            University of Auckland,       New Zealand (quadratic response in RESPONS; SIRIUS supersymmetry)
  Eirik Hjertenaes,         NTNU,                         Norway      (Cholesky decomposition)
  Pi A. B. Haase,           University of Copenhagen,     Denmark     (Triplet AO-SOPPA)
  Maria Francesca Iozzi,    University of Oslo,           Norway      (RPA)
  Brano Jansik              Technical Univ. of Ostrava    Czech Rep.  (DFT cubic response)
  Hans Joergen Aa. Jensen,  Univ. of Southern Denmark,    Denmark     (DALTON; SIRIUS, RESPONS, ABACUS modules, London, and much more)
  Dan Jonsson,              UiT The Arctic U. of Norway,  Norway      (cubic response in RESPONS module)
  Poul Joergensen,          Aarhus University,            Denmark     (RESPONS, ABACUS, and CC modules)
  Maciej Kaminski,          University of Warsaw,         Poland      (CPPh in RESPONS)
  Joanna Kauczor,           Linkoeping University,        Sweden      (Complex polarization propagator (CPP) module)
  Sheela Kirpekar,          Univ. of Southern Denmark,    Denmark     (Mass-velocity & Darwin integrals)
  Wim Klopper,              KIT Karlsruhe,                Germany     (R12 code in CC, SIRIUS, and ABACUS modules)
  Stefan Knecht,            ETH Zurich,                   Switzerland (Parallel CI and MCSCF)
  Rika Kobayashi,           Australian National Univ.,    Australia   (DIIS in CC, London in MCSCF)
  Henrik Koch,              NTNU,                         Norway      (CC module, Cholesky decomposition)
  Jacob Kongsted,           Univ. of Southern Denmark,    Denmark     (Polarizable embedding model, QM/MM)
  Andrea Ligabue,           University of Modena,         Italy       (CTOCD, AOSOPPA)
  Nanna H. List             Univ. of Southern Denmark,    Denmark     (Polarizable embedding model)
  Ola B. Lutnaes,           University of Oslo,           Norway      (DFT Hessian)
  Juan I. Melo,             University of Buenos Aires,   Argentina   (LRESC, Relativistic Effects on NMR Shieldings)
  Kurt V. Mikkelsen,        University of Copenhagen,     Denmark     (MC-SCRF and QM/MM)
  Rolf H. Myhre,            NTNU,                         Norway      (Cholesky, subsystems and ECC2)
  Christian Neiss,          Univ. Erlangen-Nuernberg,     Germany     (CCSD(R12))
  Christian B. Nielsen,     University of Copenhagen,     Denmark     (QM/MM)
  Patrick Norman,           Linkoeping University,        Sweden      (Cubic response and complex frequency response in RESPONS)
  Jeppe Olsen,              Aarhus University,            Denmark     (SIRIUS CI/density modules)
  Jogvan Magnus H. Olsen,   Univ. of Southern Denmark,    Denmark     (Polarizable embedding model, QM/MM)
  Anders Osted,             Copenhagen University,        Denmark     (QM/MM)
  Martin J. Packer,         University of Sheffield,      UK          (SOPPA)
  Filip Pawlowski,          Kazimierz Wielki University,  Poland      (CC3)
  Morten N. Pedersen,       Univ. of Southern Denmark,    Denmark     (Polarizable embedding model)
  Thomas B. Pedersen,       University of Oslo,           Norway      (Cholesky decomposition)
  Patricio F. Provasi,      University of Northeastern,   Argentina   (Analysis of coupling constants in localized orbitals)
  Zilvinas Rinkevicius,     KTH Stockholm,                Sweden      (open-shell DFT, ESR)
  Elias Rudberg,            KTH Stockholm,                Sweden      (DFT grid and basis info)
  Torgeir A. Ruden,         University of Oslo,           Norway      (Numerical derivatives in ABACUS)
  Kenneth Ruud,             UiT The Arctic U. of Norway,  Norway      (DALTON; ABACUS magnetic properties and much more)
  Pawel Salek,              KTH Stockholm,                Sweden      (DALTON; DFT code)
  Claire C. M. Samson       University of Karlsruhe       Germany     (Boys localization, r12 integrals in ERI)
  Alfredo Sanchez de Meras, University of Valencia,       Spain       (CC module, Cholesky decomposition)
  Trond Saue,               Paul Sabatier University,     France      (direct Fock matrix construction)
  Stephan P. A. Sauer,      University of Copenhagen,     Denmark     (SOPPA(CCSD), SOPPA prop., AOSOPPA, vibrational g-factors)
  Bernd Schimmelpfennig,    Forschungszentrum Karlsruhe,  Germany     (AMFI module)
  Kristian Sneskov,         Aarhus University,            Denmark     (Polarizable embedding model, QM/MM)
  Arnfinn H. Steindal,      UiT The Arctic U. of Norway,  Norway      (parallel QM/MM, Polarizable embedding model)
  Casper Steinmann,         Univ. of Southern Denmark,    Denmark     (QFIT, Polarizable embedding model)
  K. O. Sylvester-Hvid,     University of Copenhagen,     Denmark     (MC-SCRF)
  Peter R. Taylor,          VLSCI/Univ. of Melbourne,     Australia   (Symmetry handling ABACUS, integral transformation)
  Andrew M. Teale,          University of Nottingham,     England     (DFT-AC, DFT-D)
  David P. Tew,             University of Bristol,        England     (CCSD(R12))
  Olav Vahtras,             KTH Stockholm,                Sweden      (triplet response, spin-orbit, ESR, TDDFT, open-shell DFT)
  David J. Wilson,          La Trobe University,          Australia   (DFT Hessian and DFT magnetizabilities)
  Hans Agren,               KTH Stockholm,                Sweden      (SIRIUS module, RESPONS, MC-SCRF solvation model)
 --------------------------------------------------------------------------------

     Date and time (Linux)  : Mon Apr  9 17:11:38 2018
     Host name              : s51p34.deic.sdu.dk                      

 * Work memory size             :  1920000000 = 14.305 gigabytes.

 * Directories for basis set searches:
   1) /work/sdujk/kjellgren/naphthol/lrMP2
   2) /gpfs/gss1/work/sdujk/kjellgren/programs/dalton/srdft_dalton_gcc/basis


Compilation information
-----------------------

 Who compiled             | kjellgren
 Host                     | fe1.deic.sdu.dk
 System                   | Linux-3.10.0-327.36.3.el7.x86_64
 CMake generator          | Unix Makefiles
 Processor                | x86_64
 64-bit integers          | OFF
 MPI                      | ON
 Fortran compiler         | /opt/sys/apps/gcc-7.2.0/openmpi/2.1.2/bin/mpif90
 Fortran compiler version | GNU Fortran (GCC) 7.2.0
 C compiler               | /opt/sys/apps/gcc-7.2.0/openmpi/2.1.2/bin/mpicc
 C compiler version       | gcc (GCC) 7.2.0
 C++ compiler             | /opt/sys/apps/gcc-7.2.0/openmpi/2.1.2/bin/mpicxx
 C++ compiler version     | unknown
 BLAS                     | /lib64/libblas.so
 LAPACK                   | /lib64/liblapack.so
 Static linking           | OFF
 Configuration time       | 2018-04-09 13:28:54.230351

 * MPI parallel run using 24 processes.


   Content of the .dal input file
 ----------------------------------

**DALTON INPUT
.RUN WAVE
**WAVE FUNCTIONS
.HFSRDFT
.MP2
.SRFUN
 SRXLDA SRCLDA
*SCF INPUT
.DOUBLY OCCUPIED
 38
*ORBITAL INPUT
.MOSTART
 H1DIAG
.NOSUPSYM
**INTEGRALS
.NOSUP
*TWOINT
.DOSRIN
.ERF
 0.4
**END OF INPUT


   Content of the .mol file
 ----------------------------

BASIS
cc-pVDZ
 Title
 Generated by the Dalton Input File Plugin for Avogadro
Atomtypes=3 Angstrom
Charge=6.0 Atoms=10
C          2.44209       -0.70017        0.04614
C          2.42616        0.71667        0.00060
C          1.22759        1.39948       -0.02196
C         -0.01467        0.70480       -0.00025
C          0.01015       -0.72815        0.04584
C          1.25783       -1.40863        0.06837
C         -1.26555        1.38616       -0.02276
C         -2.44399        0.67292       -0.00049
C         -2.43512       -0.74354        0.04501
C         -1.23584       -1.43147        0.06777
Charge=8.0 Atoms=1
O         -1.15975       -2.79530        0.11153
Charge=1.0 Atoms=8
H          3.39696       -1.23096        0.06361
H          3.36952        1.26818       -0.01673
H          1.21466        2.49221       -0.05709
H          1.25915       -2.49848        0.10345
H         -1.27490        2.47806       -0.05783
H         -3.40350        1.19526       -0.01784
H         -3.37990       -1.29586        0.06224
H         -2.05920       -3.15445        0.12248


       *******************************************************************
       *********** Output from DALTON general input processing ***********
       *******************************************************************

 --------------------------------------------------------------------------------
   Overall default print level:    0
   Print level for DALTON.STAT:    1

    Parallel calculation using MPI
    AO-direct calculation (in sections where implemented)
    HERMIT 1- and 2-electron integral sections will be executed
    "Old" integral transformation used (limited to max 255 basis functions)
    Wave function sections will be executed (SIRIUS module)
 --------------------------------------------------------------------------------


   ****************************************************************************
   *************** Output of molecule and basis set information ***************
   ****************************************************************************


    The two title cards from your ".mol" input:
    ------------------------------------------------------------------------
 1:  Title                                                                  
 2:  Generated by the Dalton Input File Plugin for Avogadro                 
    ------------------------------------------------------------------------

  Coordinates are entered in Angstrom and converted to atomic units.
          - Conversion factor : 1 bohr = 0.52917721 A

  Atomic type no.    1
  --------------------
  Nuclear charge:   6.00000
  Number of symmetry independent centers:   10
  Number of basis sets to read;    1
  Basis set file used for this atomic type with Z =   6 :
     "/gpfs/gss1/work/sdujk/kjellgren/programs/dalton/srdft_dalton_gcc/basis/cc-pVDZ"

  Atomic type no.    2
  --------------------
  Nuclear charge:   8.00000
  Number of symmetry independent centers:    1
  Number of basis sets to read;    1
  Basis set file used for this atomic type with Z =   8 :
     "/gpfs/gss1/work/sdujk/kjellgren/programs/dalton/srdft_dalton_gcc/basis/cc-pVDZ"

  Atomic type no.    3
  --------------------
  Nuclear charge:   1.00000
  Number of symmetry independent centers:    8
  Number of basis sets to read;    1
  Basis set file used for this atomic type with Z =   1 :
     "/gpfs/gss1/work/sdujk/kjellgren/programs/dalton/srdft_dalton_gcc/basis/cc-pVDZ"


                      SYMADD: Requested addition of symmetry
                      --------------------------------------

 Symmetry test threshold:  5.00E-06

@   The molecule is centered at center of mass and rotated
@   so principal axes of inertia are along coordinate axes.

 Symmetry class found: C(1)           

 Symmetry Independent Centres             
 ----------------------------
       8 :     -3.17108306    -3.93220008    -0.00010524  Isotope  1
       6 :      0.05330757    -0.80716255     0.00009541  Isotope  1
       6 :      0.77331221     1.80511802     0.00000613  Isotope  1
       6 :     -2.58092450    -1.41793630     0.00006280  Isotope  1
       6 :      1.95184442    -2.70717800     0.00014325  Isotope  1
       6 :     -1.13055668     3.70843424     0.00005259  Isotope  1
       6 :      3.39617079     2.40221449    -0.00006628  Isotope  1
       6 :     -4.38774331     0.46976554    -0.00001478  Isotope  1
       6 :     -3.64762841     3.04362290    -0.00000577  Isotope  1
       6 :      4.47691679    -2.05413529    -0.00001854  Isotope  1
       6 :      5.20443644     0.52418005    -0.00005512  Isotope  1
       1 :      1.37240630    -4.68461743     0.00027670  Isotope  1
       1 :     -0.56458238     5.69387216     0.00007026  Isotope  1
       1 :      3.95609880     4.39107002    -0.00010808  Isotope  1
       1 :     -6.39532239    -0.02786037    -0.00005770  Isotope  1
       1 :     -4.99335920    -4.10364428    -0.00033396  Isotope  1
       1 :     -5.10818897     4.50304003    -0.00014624  Isotope  1
       1 :      5.92455714    -3.52639403    -0.00015956  Isotope  1
       1 :      7.20901092     1.02110188    -0.00024883  Isotope  1

 No symmetry elements were found.


                         SYMGRP: Point group information
                         -------------------------------

@    Full point group is: C(1)           
@    Represented as:      C1 


                                 Isotopic Masses
                                 ---------------

                           C          12.000000
                           C          12.000000
                           C          12.000000
                           C          12.000000
                           C          12.000000
                           C          12.000000
                           C          12.000000
                           C          12.000000
                           C          12.000000
                           C          12.000000
                           O          15.994915
                           H           1.007825
                           H           1.007825
                           H           1.007825
                           H           1.007825
                           H           1.007825
                           H           1.007825
                           H           1.007825
                           H           1.007825

                       Total mass:   144.057515 amu
                       Natural abundance:  89.207 %

 Center-of-mass coordinates (a.u.):    0.000000    0.000000    0.000000
 Center-of-mass coordinates (Angs):    0.000000    0.000000    0.000000


  Atoms and basis sets
  --------------------

  Number of atom types :    3
  Total number of atoms:   19

  Basis set used is "cc-pVDZ" from the basis set library.

  label    atoms   charge   prim   cont     basis
  ----------------------------------------------------------------------
  C          10    6.0000    26    14      [9s4p1d|3s2p1d]                                    
  O           1    8.0000    26    14      [9s4p1d|3s2p1d]                                    
  H           8    1.0000     7     5      [4s1p|2s1p]                                        
  ----------------------------------------------------------------------
  total:     19   76.0000   342   194
  ----------------------------------------------------------------------
  Spherical harmonic basis used.

  Threshold for neglecting AO integrals:  1.00D-12

  Max    interatomic separation is    7.2208 Angstrom (   13.6453 Bohr)
  between atoms   17 and   12, "H     " and "H     ".

  Min HX interatomic separation is    0.9686 Angstrom (    1.8303 Bohr)

  Min YX interatomic separation is    1.3667 Angstrom (    2.5826 Bohr)


  Bond distances (Angstrom):
  --------------------------

                  atom 1     atom 2       distance
                  ------     ------       --------
  bond distance:  C          C            1.417661
  bond distance:  C          C            1.379604
  bond distance:  C          C            1.423468
  bond distance:  C          C            1.433906
  bond distance:  C          C            1.380174
  bond distance:  C          C            1.421361
  bond distance:  C          C            1.424591
  bond distance:  C          C            1.377653
  bond distance:  C          C            1.417218
  bond distance:  C          C            1.430955
  bond distance:  C          C            1.382765
  bond distance:  O          C            1.366652
  bond distance:  H          C            1.092621
  bond distance:  H          C            1.092882
  bond distance:  H          C            1.093371
  bond distance:  H          C            1.090415
  bond distance:  H          C            1.092503
  bond distance:  H          C            1.092611
  bond distance:  H          C            1.094515
  bond distance:  H          O            0.968565


  Bond angles (degrees):
  ----------------------

                  atom 1     atom 2     atom 3         angle
                  ------     ------     ------         -----
  bond angle:     C          C          C            120.258
  bond angle:     C          C          H            119.726
  bond angle:     C          C          H            120.017
  bond angle:     C          C          C            120.327
  bond angle:     C          C          H            119.680
  bond angle:     C          C          H            119.993
  bond angle:     C          C          C            121.091
  bond angle:     C          C          H            120.361
  bond angle:     C          C          H            118.549
  bond angle:     C          C          C            118.234
  bond angle:     C          C          C            122.183
  bond angle:     C          C          C            119.582
  bond angle:     C          C          C            119.613
  bond angle:     C          C          C            118.463
  bond angle:     C          C          C            121.924
  bond angle:     C          C          C            120.477
  bond angle:     C          C          H            120.832
  bond angle:     C          C          H            118.690
  bond angle:     C          C          C            120.213
  bond angle:     C          C          H            119.081
  bond angle:     C          C          H            120.706
  bond angle:     C          C          C            120.838
  bond angle:     C          C          H            120.227
  bond angle:     C          C          H            118.935
  bond angle:     C          C          C            120.212
  bond angle:     C          C          H            119.964
  bond angle:     C          C          H            119.824
  bond angle:     C          C          C            120.692
  bond angle:     C          C          O            116.264
  bond angle:     C          C          O            123.045
  bond angle:     C          O          H            108.584




 Principal moments of inertia (u*A**2) and principal axes
 --------------------------------------------------------

   IA     261.418982          1.000000   -0.000000    0.000000
   IB     448.626822          0.000000    1.000000    0.000000
   IC     710.045803          0.000000    0.000000    1.000000


 Rotational constants
 --------------------

@    The molecule is planar.

               A                   B                   C

           1933.2147           1126.5020            711.7555 MHz
            0.064485            0.037576            0.023742 cm-1


@  Nuclear repulsion energy :  549.945853402866 Hartree


                     .---------------------------------------.
                     | Starting in Integral Section (HERMIT) |
                     `---------------------------------------'



 ***************************************************************************************
 ****************** Output from **INTEGRALS input processing (HERMIT) ******************
 ***************************************************************************************



    *************************************************************************
    ****************** Output from HERMIT input processing ******************
    *************************************************************************


 Default print level:        1

 * Nuclear model: Point charge

 Calculation of one-electron Hamiltonian integrals.

 Center of mass  (bohr):      0.000000000000      0.000000000000      0.000000000000
 Operator center (bohr):      0.000000000000      0.000000000000      0.000000000000
 Gauge origin    (bohr):      0.000000000000      0.000000000000      0.000000000000
 Dipole origin   (bohr):      0.000000000000      0.000000000000      0.000000000000


  Set-up from HR2INP:
  -------------------

 Print level in TWOINT:    1

 DFT-hybrid : Using a Erf type two-elec. operator
              with the coupling parameter :    0.40000
 * Direct calculation of Fock matrices in AO-basis.
 * Program controlled screening thresholds used for this.
 * Separate density screening of Coulomb integral batches
 * Separate density screening of exchange integral batches


     ************************************************************************
     ************************** Output from HERINT **************************
     ************************************************************************



                      Nuclear contribution to dipole moments
                      --------------------------------------

                 au               Debye          C m (/(10**-30)

      x      0.68676770         1.74558927         5.82265907
      y      1.61050592         4.09349747        13.65443778
      z     -0.00035121        -0.00089268        -0.00297767


  Time used in ONEDRV     is       0.21 seconds
  Time used in GABGEN     is       0.25 seconds
  Total CPU  time used in HERMIT:   0.83 seconds
  Total wall time used in HERMIT:   0.86 seconds


                        .----------------------------------.
                        | End of Integral Section (HERMIT) |
                        `----------------------------------'



                   .--------------------------------------------.
                   | Starting in Wave Function Section (SIRIUS) |
                   `--------------------------------------------'


 **********************************************************************
 *SIRIUS* a direct, restricted step, second order MCSCF program       *
 **********************************************************************

 
     Date and time (Linux)  : Mon Apr  9 17:11:39 2018
     Host name              : s51p34.deic.sdu.dk                      

 Title lines from ".mol" input file:
      Title                                                                  
      Generated by the Dalton Input File Plugin for Avogadro                 

 Print level on unit LUPRI =   2 is   0
 Print level on unit LUW4  =   2 is   5

@    MP2, closed-shell Moeller-Plesset second-order calculation.

@    This is a combination run starting with
@              a restricted, closed shell HF-srDFT hybrid calculation

 Fock matrices are calculated directly and in parallel without use of integrals on disk.

 Initial molecular orbitals are obtained according to
 ".MOSTART H1DIAG" input option

     Wave function specification
     ============================
@    Wave function type        --- MP2 ---
@    Number of closed shell electrons          76
@    Number of electrons in active shells       0
@    Total charge of the molecule               0

@    Spin multiplicity and 2 M_S                1         0
@    Total number of symmetries                 1 (point group: C1 )
@    Reference state symmetry                   1 (irrep name : A  )

@    This is a lrWFT-srDFT calculation using the 
@      SRXLDA     short range exchange functional
@      SRCLDA     short range correlation functional

@    sr-DFT and exact sr-HF exchange weights:    1.000000    0.000000

     Orbital specifications
     ======================
@    Abelian symmetry species          All |    1
@                                          |  A  
                                       --- |  ---
@    Occupied SCF orbitals              38 |   38
@    Secondary orbitals                156 |  156
@    Total number of orbitals          194 |  194
@    Number of basis functions         194 |  194

     Optimization information
     ========================
@    Number of configurations                 1
@    Number of orbital rotations           5928
     ------------------------------------------
@    Total number of variables             5929

     Maximum number of Fock   iterations      0
     Maximum number of DIIS   iterations     60
     Maximum number of QC-SCF iterations     60
     Threshold for SCF convergence     5.00D-05


 ***********************************************
 ***** DIIS acceleration of SCF iterations *****
 ***********************************************

 C1-DIIS algorithm; max error vectors =    8

 Iter      Total energy        Error norm    Delta(E)  DIIS dim.
 -----------------------------------------------------------------------------

***  INFO  GETGAB: GABSRXXX not found on AOPROPER. Regenerating.

   Ex-sr + Ec-sr                        -59.3556451997
 + EJsr = sr Coulomb energy             295.9425813972
 = Total E(srDFT)                       236.5869361975

   1  Screening settings (-IFTHRS, JTDIIS, DIFDEN, times)   -8    1    F  1.16D+01  1.17D+01
@  1    -358.559607059        2.52280D+01   -3.59D+02    1
      Virial theorem: -V/T =      1.647696
@    MULPOP   C       2.45; C       3.04; C       0.48; C      -3.74; C      -5.19; C      -2.36; C       0.21; C       2.59; C       0.69; C      -4.83; 
@             O      -1.58; H       1.02; H       1.02; H       1.01; H       1.00; H       1.01; H       1.03; H       1.01; H       1.13; 
   1  Level shift: doubly occupied orbital energies shifted by -2.00D-01
 -----------------------------------------------------------------------------

   Ex-sr + Ec-sr                        -47.3871696986
 + EJsr = sr Coulomb energy             180.8025682775
 = Total E(srDFT)                       133.4153985788

   2  Screening settings (-IFTHRS, JTDIIS, DIFDEN, times)   -8    2    F  8.63D+00  8.62D+00
@  2    -307.962572374        2.67512D+01    5.06D+01    2
      Virial theorem: -V/T =      1.679674
@    MULPOP   C      -3.31; C      -9.72; C       0.55; C       4.31; C       4.00; C       4.00; C       3.48; C      -2.54; C       3.77; C       3.58; 
@             O       6.02; H      -3.95; H      -4.11; H      -2.94; H       1.08; H      -2.04; H      -2.63; H      -0.55; H       1.00; 
   2  Level shift: doubly occupied orbital energies shifted by -2.00D-01
 -----------------------------------------------------------------------------

   Ex-sr + Ec-sr                        -48.9129313263
 + EJsr = sr Coulomb energy             200.1099701178
 = Total E(srDFT)                       151.1970387915

   3  Screening settings (-IFTHRS, JTDIIS, DIFDEN, times)   -8    3    F  8.83D+00  8.83D+00
@  3    -352.195798040        2.54556D+01   -4.42D+01    3
      Virial theorem: -V/T =      1.748511
@    MULPOP   C       4.09; C       4.00; C       4.02; C       4.15; C       5.02; C       1.39; C      -2.45; C      -1.71; C      -7.65; C      -3.63; 
@             O      -1.75; H       0.98; H       1.00; H       1.00; H      -1.16; H      -0.03; H      -1.39; H      -2.36; H      -3.50; 
   3  Level shift: doubly occupied orbital energies shifted by -2.00D-01
 -----------------------------------------------------------------------------

   Ex-sr + Ec-sr                        -48.6504989691
 + EJsr = sr Coulomb energy             201.9847593081
 = Total E(srDFT)                       153.3342603390

   4  Screening settings (-IFTHRS, JTDIIS, DIFDEN, times)   -8    4    F  8.48D+00  8.47D+00
@  4    -399.425276469        2.53409D+01   -4.72D+01    4
      Virial theorem: -V/T =      1.853814
@    MULPOP   C      -2.51; C      -1.44; C      -4.05; C      -2.25; C      -0.01; C      -3.23; C      -1.58; C       3.46; C       3.81; C       2.79; 
@             O       3.26; H       0.45; H       0.60; H      -0.68; H      -1.34; H       0.16; H       0.96; H       0.99; H       0.60; 
   4  Level shift: doubly occupied orbital energies shifted by -2.00D-01
 -----------------------------------------------------------------------------

   Ex-sr + Ec-sr                        -47.3009712775
 + EJsr = sr Coulomb energy             188.6587874619
 = Total E(srDFT)                       141.3578161844

   5  Screening settings (-IFTHRS, JTDIIS, DIFDEN, times)   -8    5    F  8.38D+00  8.38D+00
@  5    -452.836466686        5.79525D+00   -5.34D+01    5
      Virial theorem: -V/T =      1.983062
@    MULPOP   C       0.26; C       2.09; C      -0.02; C      -0.17; C      -0.56; C      -0.51; C      -0.80; C      -0.19; C      -0.74; C      -0.81; 
@             O      -0.79; H       0.21; H       0.93; H       0.11; H      -0.15; H       0.13; H       0.26; H       0.26; H       0.46; 
   5  Level shift: doubly occupied orbital energies shifted by -5.00D-02
 -----------------------------------------------------------------------------

   Ex-sr + Ec-sr                        -46.8121697457
 + EJsr = sr Coulomb energy             183.2838328515
 = Total E(srDFT)                       136.4716631058

   6  Screening settings (-IFTHRS, JTDIIS, DIFDEN, times)   -8    6    F  8.37D+00  8.37D+00
@  6    -456.305409473        3.54668D+00   -3.47D+00    6
      Virial theorem: -V/T =      1.997336
@    MULPOP   C       0.06; C      -1.44; C       0.32; C      -0.17; C      -0.03; C       0.34; C       0.56; C       0.30; C       0.25; C      -0.06; 
@             O      -0.35; H       0.14; H       0.09; H       0.12; H      -0.11; H      -0.06; H      -0.02; H      -0.06; H       0.13; 
   6  Level shift: doubly occupied orbital energies shifted by -5.00D-02
 -----------------------------------------------------------------------------

   Ex-sr + Ec-sr                        -46.5193418703
 + EJsr = sr Coulomb energy             180.7663109498
 = Total E(srDFT)                       134.2469690795

   7  Screening settings (-IFTHRS, JTDIIS, DIFDEN, times)   -9    7    F  8.63D+00  8.63D+00
@  7    -457.060142805        1.35969D+00   -7.55D-01    7
      Virial theorem: -V/T =      2.003542
@    MULPOP   C      -0.19; C      -0.05; C      -0.13; C       0.05; C       0.20; C       0.12; C      -0.16; C      -0.08; C       0.01; C       0.17; 
@             O       0.02; H       0.05; H      -0.09; H       0.03; H      -0.05; H       0.01; H       0.04; H      -0.02; H       0.07; 
   7  Level shift: doubly occupied orbital energies shifted by -2.50D-02
 -----------------------------------------------------------------------------

   Ex-sr + Ec-sr                        -46.6813964711
 + EJsr = sr Coulomb energy             182.1495632371
 = Total E(srDFT)                       135.4681667660

   8  Screening settings (-IFTHRS, JTDIIS, DIFDEN, times)   -9    8    F  8.63D+00  8.62D+00
@  8    -457.154455177        5.81695D-01   -9.43D-02    8
      Virial theorem: -V/T =      2.000941
@    MULPOP   C      -0.05; C      -0.19; C      -0.03; C       0.10; C       0.08; C       0.04; C       0.03; C       0.02; C       0.00; C       0.07; 
@             O      -0.19; H       0.03; H      -0.01; H       0.01; H      -0.02; H      -0.03; H       0.00; H      -0.01; H       0.17; 
   8  Level shift: doubly occupied orbital energies shifted by -1.25D-02
 -----------------------------------------------------------------------------

   Ex-sr + Ec-sr                        -46.6793780448
 + EJsr = sr Coulomb energy             182.2564108583
 = Total E(srDFT)                       135.5770328135

   9  Screening settings (-IFTHRS, JTDIIS, DIFDEN, times)   -9    9    F  8.63D+00  8.62D+00
@  9    -457.179111428        2.66346D-01   -2.47D-02    8
      Virial theorem: -V/T =      2.001136
@    MULPOP   C       0.02; C      -0.08; C       0.03; C      -0.04; C      -0.02; C       0.07; C      -0.00; C       0.01; C      -0.04; C       0.01; 
@             O      -0.11; H       0.01; H      -0.00; H      -0.00; H      -0.01; H      -0.01; H       0.02; H       0.00; H       0.15; 
 -----------------------------------------------------------------------------

   Ex-sr + Ec-sr                        -46.7144355837
 + EJsr = sr Coulomb energy             182.5296969200
 = Total E(srDFT)                       135.8152613363

  10  Screening settings (-IFTHRS, JTDIIS, DIFDEN, times)  -10   10    F  8.81D+00  8.81D+00
@ 10    -457.183789231        5.69384D-02   -4.68D-03    8
      Virial theorem: -V/T =      2.000564
@    MULPOP   C      -0.01; C       0.00; C      -0.01; C       0.00; C      -0.01; C       0.02; C      -0.01; C       0.01; C      -0.02; C       0.02; 
@             O      -0.17; H       0.01; H       0.00; H      -0.00; H       0.00; H      -0.01; H       0.01; H      -0.00; H       0.17; 
 -----------------------------------------------------------------------------

   Ex-sr + Ec-sr                        -46.7055528940
 + EJsr = sr Coulomb energy             182.4597584751
 = Total E(srDFT)                       135.7542055812

  11  Screening settings (-IFTHRS, JTDIIS, DIFDEN, times)  -10   11    F  8.82D+00  8.81D+00
@ 11    -457.184064559        2.42142D-02   -2.75D-04    8
      Virial theorem: -V/T =      2.000718
@    MULPOP   C       0.00; C       0.00; C      -0.01; C       0.01; C      -0.01; C       0.02; C      -0.01; C       0.01; C      -0.04; C       0.01; 
@             O      -0.16; H       0.01; H       0.01; H      -0.00; H       0.00; H      -0.01; H       0.01; H       0.00; H       0.16; 
 -----------------------------------------------------------------------------

   Ex-sr + Ec-sr                        -46.7074106086
 + EJsr = sr Coulomb energy             182.4755569390
 = Total E(srDFT)                       135.7681463305

  12  Screening settings (-IFTHRS, JTDIIS, DIFDEN, times)  -11   12    F  8.95D+00  8.94D+00
@ 12    -457.184125722        1.02903D-02   -6.12D-05    8
      Virial theorem: -V/T =      2.000690
@    MULPOP   C       0.00; C       0.01; C      -0.01; C      -0.00; C      -0.01; C       0.02; C      -0.01; C       0.01; C      -0.04; C       0.01; 
@             O      -0.16; H       0.01; H       0.01; H      -0.00; H       0.00; H      -0.01; H       0.01; H      -0.00; H       0.16; 
 -----------------------------------------------------------------------------

   Ex-sr + Ec-sr                        -46.7076748721
 + EJsr = sr Coulomb energy             182.4785650263
 = Total E(srDFT)                       135.7708901541

  13  Screening settings (-IFTHRS, JTDIIS, DIFDEN, times)  -11   13    F  8.95D+00  8.94D+00
@ 13    -457.184140458        5.24440D-03   -1.47D-05    8
      Virial theorem: -V/T =      2.000688
@    MULPOP   C       0.00; C       0.01; C      -0.01; C       0.00; C      -0.01; C       0.02; C      -0.01; C       0.01; C      -0.04; C       0.01; 
@             O      -0.16; H       0.01; H       0.01; H      -0.00; H       0.01; H      -0.01; H       0.01; H      -0.00; H       0.16; 
 -----------------------------------------------------------------------------

   Ex-sr + Ec-sr                        -46.7076059040
 + EJsr = sr Coulomb energy             182.4769518622
 = Total E(srDFT)                       135.7693459581

  14  Screening settings (-IFTHRS, JTDIIS, DIFDEN, times)  -11   14    F  8.95D+00  8.95D+00
@ 14    -457.184144519        1.68257D-03   -4.06D-06    8
      Virial theorem: -V/T =      2.000689
@    MULPOP   C       0.00; C       0.00; C      -0.01; C       0.00; C      -0.01; C       0.02; C      -0.01; C       0.01; C      -0.04; C       0.01; 
@             O      -0.16; H       0.01; H       0.01; H      -0.00; H       0.01; H      -0.01; H       0.01; H      -0.00; H       0.16; 
 -----------------------------------------------------------------------------

   Ex-sr + Ec-sr                        -46.7074618411
 + EJsr = sr Coulomb energy             182.4758489006
 = Total E(srDFT)                       135.7683870595

  15  Screening settings (-IFTHRS, JTDIIS, DIFDEN, times)  -11   15    F  8.95D+00  8.94D+00
@ 15    -457.184145080        6.57032D-04   -5.61D-07    8
      Virial theorem: -V/T =      2.000691
@    MULPOP   C      -0.00; C       0.00; C      -0.01; C       0.00; C      -0.01; C       0.02; C      -0.01; C       0.01; C      -0.04; C       0.01; 
@             O      -0.16; H       0.01; H       0.01; H      -0.00; H       0.01; H      -0.01; H       0.01; H      -0.00; H       0.16; 
 -----------------------------------------------------------------------------

   Ex-sr + Ec-sr                        -46.7075393231
 + EJsr = sr Coulomb energy             182.4765229943
 = Total E(srDFT)                       135.7689836711

  16  Screening settings (-IFTHRS, JTDIIS, DIFDEN, times)  -11   16    F  8.95D+00  8.95D+00
@ 16    -457.184145208        3.63707D-04   -1.28D-07    8
      Virial theorem: -V/T =      2.000690
@    MULPOP   C      -0.00; C       0.00; C      -0.01; C       0.00; C      -0.01; C       0.02; C      -0.01; C       0.01; C      -0.04; C       0.01; 
@             O      -0.16; H       0.01; H       0.01; H      -0.00; H       0.01; H      -0.01; H       0.01; H      -0.00; H       0.16; 
 -----------------------------------------------------------------------------

   Ex-sr + Ec-sr                        -46.7075550618
 + EJsr = sr Coulomb energy             182.4766553974
 = Total E(srDFT)                       135.7691003356

  17  Screening settings (-IFTHRS, JTDIIS, DIFDEN, times)  -11   17    F  8.95D+00  8.94D+00
@ 17    -457.184145245        1.84126D-04   -3.72D-08    8
      Virial theorem: -V/T =      2.000689
@    MULPOP   C       0.00; C       0.00; C      -0.01; C       0.00; C      -0.01; C       0.02; C      -0.01; C       0.01; C      -0.04; C       0.01; 
@             O      -0.16; H       0.01; H       0.01; H      -0.00; H       0.01; H      -0.01; H       0.01; H      -0.00; H       0.16; 
 -----------------------------------------------------------------------------

   Ex-sr + Ec-sr                        -46.7075290580
 + EJsr = sr Coulomb energy             182.4764215105
 = Total E(srDFT)                       135.7688924524

  18  Screening settings (-IFTHRS, JTDIIS, DIFDEN, times)  -11   18    F  8.95D+00  8.94D+00
@ 18    -457.184145252        6.56472D-05   -6.50D-09    8
      Virial theorem: -V/T =      2.000690
@    MULPOP   C      -0.00; C       0.00; C      -0.01; C       0.00; C      -0.01; C       0.02; C      -0.01; C       0.01; C      -0.04; C       0.01; 
@             O      -0.16; H       0.01; H       0.01; H      -0.00; H       0.01; H      -0.01; H       0.01; H      -0.00; H       0.16; 
 -----------------------------------------------------------------------------

   Ex-sr + Ec-sr                        -46.7075336376
 + EJsr = sr Coulomb energy             182.4764674967
 = Total E(srDFT)                       135.7689338591

  19  Screening settings (-IFTHRS, JTDIIS, DIFDEN, times)  -11   19    F  8.95D+00  8.95D+00
@ 19    -457.184145253        3.38774D-05   -1.72D-09    8

@ *** DIIS converged in  19 iterations !
@     Converged SCF energy, gradient:   -457.184145253366    3.39D-05
    - total time used in SIRFCK :              0.00 seconds

 --- Writing SIRIFC interface file

 CPU and wall time for SCF :     171.596     171.983


 ----- Output from SIRIUS MP2 module -----

 Reference: H.J.Aa.Jensen, P.Jørgensen, H.Ågren, and J.Olsen,
            J. Chem. Phys. 88, 3834 (1988); 89, 5354 (1988)

 Checking that the closed shell orbitals are canonical Hartree-Fock orbitals

    Number of electrons  :   76
    Closed shell orbitals:   38

 Generating Fock matrix

   Ex-sr + Ec-sr                        -46.7075336376
 + EJsr = sr Coulomb energy             182.4764674967
 = Total E(srDFT)                       135.7689338591


 Hartree-Fock electronic energy:       -1007.129998656234
 Hartree-Fock total      energy:        -457.184145253367

 Hartree-Fock orbital energies, symmetry 1 ( A  ),   38 occupied SCF orbitals

       -18.85182924   -10.07337244   -10.01706349   -10.01360762   -10.01201918
       -10.00842376   -10.00656248   -10.00600952   -10.00573947   -10.00550327
       -10.00065818    -1.18782549    -1.00961497    -0.95684220    -0.90224232
        -0.87633681    -0.84644017    -0.76224111    -0.74739098    -0.72591649
        -0.66486945    -0.64110391    -0.62371171    -0.59743452    -0.56878522
        -0.54978958    -0.54380678    -0.54069175    -0.51957593    -0.50146447
        -0.49119127    -0.48425530    -0.44693147    -0.44040466    -0.43993029
        -0.37428319    -0.34072196    -0.29554953     0.04244622     0.06490390
         0.12913268     0.13869071     0.16256513     0.17060990     0.19097685
         0.20111516     0.21591373     0.23073590     0.24179558     0.25968874
         0.31368306     0.33227364     0.34554813     0.37341134     0.39050721
         0.40335500     0.40972927     0.43512945     0.44557782     0.52141837
         0.53260162     0.56194277     0.56464033     0.57531590     0.58358255
         0.59083420     0.60360575     0.60766402     0.60927673     0.63080839
         0.63282519     0.64275384     0.64578483     0.64784790     0.65380365
         0.65806065     0.66601024     0.69714332     0.71125206     0.71833087
         0.72042992     0.72709061     0.74792401     0.76627614     0.77807033
         0.78952508     0.79503900     0.81244709     0.83882814     0.85725428
         0.87039838     0.88772807     0.94947193     0.95438288     0.98834368
         0.99811757     1.01536300     1.02148703     1.04710965     1.06524730
         1.07725970     1.08672873     1.09308016     1.09530563     1.10550814
         1.13188260     1.13250605     1.14734865     1.15259185     1.17116332
         1.19216871     1.20142446     1.22578676     1.24503020     1.24870022
         1.25475688     1.37872495     1.39623898     1.41209160     1.43661414
         1.46435615     1.46997941     1.52769923     1.53045749     1.53720846
         1.57658284     1.59866969     1.60873193     1.61911617     1.65569492
         1.65772117     1.67986974     1.70038384     1.71328094     1.73373188
         1.75570589     1.75878019     1.77904441     1.78121777     1.78776284
         1.79221649     1.79413050     1.82708294     1.84688409     1.86861454
         1.87907991     1.89808432     1.90081852     1.90614179     1.93574052
         1.94089898     1.94998562     1.95735709     1.98036702     1.99063670
         1.99126560     2.00610895     2.02917964     2.07439339     2.10589208
         2.11617218     2.14083738     2.15917951     2.18318531     2.18752394
         2.21306724     2.22504716     2.28629272     2.30204439     2.33982713
         2.38369934     2.41567009     2.42532578     2.46074168     2.50791321
         2.51833302     2.55738640     2.60524922     2.66907188     2.69388682
         2.79469341     2.80805040     2.82949675     2.88812549     2.91748433
         2.93652813     2.99983585     3.01989374     3.06448015     3.31243120
         3.41302314     3.57130228     3.69643074     3.87892216

    E(LUMO) :     0.04244622   (in symmetry 1)
  - E(HOMO) :    -0.29554953   (in symmetry 1)
  --------------------------
    gap     :     0.33799576

---> (Re)generating AOTWOINT
---> and (re)generating AOSR2INT


     ************************************************************************
     ************************** Output from HERINT **************************
     ************************************************************************


 Threshold for neglecting two-electron integrals:  1.00D-12
 HERMIT - Number of two-electron integrals written:   144525289 ( 80.8% )
 HERMIT - Megabytes written:                           1654.883

  Time used in TWOINT     is      1 minute  29 seconds

 Threshold for neglecting two-electron integrals:  1.00D-12
 HERMIT - Number of two-electron integrals written:   127851965 ( 71.5% )
 HERMIT - Megabytes written:                           1463.965

  Time used in TWOINT short-range is      1 minute  39 seconds

 2-el. integral transformation level 5: Total CPU and WALL times (sec)     321.115     330.595

 MP2 move   0.143344 electrons to unoccupied HF orbitals


@   Short-range Hartree-Fock total energy        :          -457.1841452534
@   + MP2 contribution from long-range integrals :            -0.1172298310
@   = short-range MP2 second order energy        :          -457.3013750844

 *******************************************************
 MP2-SRDFT natural orbitals: Short-range self-consistent
 contributions are NOT taken into account.
 *******************************************************

 Natural orbital occupation numbers, symmetry 1 (irrep A  )
 Sum =    76.00000000; RHF =    76.00000000; Difference =     0.00000000

         1.99999972     1.99999780     1.99999751     1.99999720     1.99999706
         1.99999700     1.99999687     1.99999683     1.99999675     1.99999653
         1.99999629     1.99983184     1.99969912     1.99956730     1.99928578
         1.99909757     1.99902361     1.99830596     1.99824980     1.99810960
         1.99782761     1.99768298     1.99730055     1.99682675     1.99628575
         1.99619978     1.99608439     1.99545867     1.99506208     1.99490373
         1.99460520     1.99418478     1.99262543     1.99251738     1.99230087
         1.98604496     1.97565388     1.97468804     0.02414906     0.02319294
         0.01210195     0.00606907     0.00588054     0.00515742     0.00450274
         0.00400402     0.00381359     0.00373805     0.00352348     0.00257115
         0.00226648     0.00209195     0.00206377     0.00201291     0.00186402
         0.00170333     0.00158570     0.00149307     0.00146488     0.00140919
         0.00131438     0.00128090     0.00125573     0.00122973     0.00121246
         0.00108606     0.00107476     0.00100342     0.00096161     0.00092476
         0.00088224     0.00085181     0.00084686     0.00082308     0.00080161
         0.00069766     0.00065342     0.00061726     0.00059869     0.00055907
         0.00054817     0.00045009     0.00039700     0.00036770     0.00036104
         0.00030695     0.00029152     0.00025313     0.00022928     0.00022434
         0.00020797     0.00019933     0.00018234     0.00017421     0.00016912
         0.00014791     0.00014219     0.00013849     0.00013316     0.00012838
         0.00012728     0.00012050     0.00012020     0.00011792     0.00010320
         0.00009770     0.00009266     0.00008989     0.00007399     0.00006944
         0.00006090     0.00005586     0.00005295     0.00005275     0.00004973
         0.00004674     0.00004618     0.00004262     0.00003686     0.00003649
         0.00003474     0.00003449     0.00003328     0.00003070     0.00003005
         0.00002960     0.00002906     0.00002774     0.00002494     0.00002266
         0.00002204     0.00002055     0.00001967     0.00001911     0.00001830
         0.00001763     0.00001732     0.00001679     0.00001633     0.00001559
         0.00001479     0.00001424     0.00001326     0.00001292     0.00001262
         0.00001130     0.00001087     0.00001036     0.00000976     0.00000942
         0.00000928     0.00000879     0.00000838     0.00000784     0.00000733
         0.00000636     0.00000605     0.00000559     0.00000516     0.00000446
         0.00000442     0.00000391     0.00000351     0.00000334     0.00000313
         0.00000286     0.00000275     0.00000256     0.00000239     0.00000235
         0.00000221     0.00000215     0.00000213     0.00000184     0.00000181
         0.00000157     0.00000137     0.00000132     0.00000132     0.00000123
         0.00000114     0.00000103     0.00000087     0.00000081     0.00000077
         0.00000071     0.00000067     0.00000066     0.00000046     0.00000040
         0.00000033     0.00000028     0.00000020     0.00000010

 Time used for MP2 natural orbitals :     342.956 CPU seconds,     352.715 wall seconds.

 CPU and wall time for MP2 :     342.956     352.716


                       .-----------------------------------.
                       | --- Final results from SIRIUS --- |
                       `-----------------------------------'


@    Spin multiplicity:           1
@    Spatial symmetry:            1 ( irrep  A   in C1  )
@    Total charge of molecule:    0

@    Final HF-SRDFT energy:      -457.184145253366
@    Nuclear repulsion:           549.945853402866
@    Electronic energy:         -1007.129998656232

@    Final gradient norm:           0.000033877436

 
     Date and time (Linux)  : Mon Apr  9 17:20:24 2018
     Host name              : s51p34.deic.sdu.dk                      

File label for MO orbitals:   9Apr18   MP2SAVE 

 (Only coefficients > 0.0100 are printed.)

 Molecular orbitals for symmetry species 1  (A  )
 ------------------------------------------------

    Orbital        29       30       31       32       33       34       35
   2 C   :1s     0.0632  -0.0789   0.0265   0.1258  -0.0752  -0.0090   0.0000
   3 C   :1s    -0.0226   0.0323   0.0185  -0.0071   0.0178   0.0278   0.0000
   4 C   :2px    0.1164   0.3430  -0.2477  -0.0556   0.2067  -0.1048  -0.0000
   5 C   :2py    0.3956  -0.0137  -0.2017   0.2650  -0.0073  -0.1712  -0.0001
   6 C   :2pz   -0.0000  -0.0000   0.0000   0.0000   0.0000  -0.0001   0.3509
   7 C   :2px   -0.0126  -0.1098   0.0469   0.0160  -0.0542   0.0107   0.0000
   8 C   :2py   -0.1110   0.0398   0.0540  -0.0696  -0.0031   0.0481   0.0000
   9 C   :2pz   -0.0000   0.0000  -0.0000  -0.0000   0.0000   0.0000  -0.0335
  10 C   :3d2-   0.0093  -0.0132  -0.0027   0.0088  -0.0165  -0.0088  -0.0000
  14 C   :3d2+  -0.0076  -0.0128   0.0018  -0.0106  -0.0010   0.0084   0.0000
  16 C   :1s     0.0703   0.0882   0.0521   0.1155   0.0651  -0.0279  -0.0000
  17 C   :1s     0.0146  -0.0488   0.0385  -0.0073  -0.0040   0.0154   0.0000
  18 C   :2px   -0.0204  -0.2906  -0.1250  -0.1887  -0.1660   0.0287   0.0000
  19 C   :2py   -0.4266   0.0591   0.3162  -0.1979   0.1179   0.1827   0.0001
  20 C   :2pz   -0.0000   0.0000  -0.0000   0.0000   0.0000  -0.0001   0.3462
  21 C   :2px    0.0037   0.1087   0.0056   0.0521   0.0419  -0.0176  -0.0000
  22 C   :2py    0.1223  -0.0060  -0.0627   0.0670  -0.0285  -0.0361  -0.0000
  23 C   :2pz   -0.0000  -0.0000   0.0000  -0.0000  -0.0000   0.0000  -0.0300
  24 C   :3d2-   0.0072  -0.0168  -0.0018   0.0054  -0.0089  -0.0019  -0.0000
  28 C   :3d2+  -0.0061  -0.0079   0.0042  -0.0142  -0.0125   0.0131   0.0000
  30 C   :1s    -0.0417   0.1211  -0.0182  -0.0637  -0.0702   0.1216   0.0000
  31 C   :1s     0.0400   0.0407  -0.0944   0.0318  -0.1060  -0.0127   0.0000
  32 C   :2px   -0.2168   0.1413   0.2554   0.2139   0.3634  -0.1785  -0.0001
  33 C   :2py    0.1557  -0.2192  -0.2106   0.1448  -0.0206  -0.1744  -0.0000
  34 C   :2pz   -0.0000   0.0000  -0.0000  -0.0000   0.0000  -0.0001   0.2209
  35 C   :2px    0.0133  -0.0678  -0.0637  -0.0828  -0.0363   0.0347   0.0000
  36 C   :2py   -0.0450   0.0679   0.1065  -0.0426   0.0411   0.0667   0.0000
  37 C   :2pz    0.0000   0.0000  -0.0000   0.0000  -0.0000   0.0000  -0.0185
  38 C   :3d2-  -0.0018  -0.0063  -0.0094  -0.0076  -0.0119  -0.0150  -0.0000
  42 C   :3d2+  -0.0053  -0.0066   0.0040  -0.0133  -0.0050   0.0181   0.0000
  44 C   :1s    -0.0337  -0.1189  -0.0095   0.0088  -0.0031  -0.0647  -0.0000
  45 C   :1s    -0.0722   0.1000  -0.0048   0.0421  -0.0182   0.0365   0.0000
  46 C   :2px    0.0997  -0.0066  -0.2102  -0.3854  -0.3938   0.1821   0.0001
  47 C   :2py    0.2705  -0.0334   0.0623   0.1219   0.1451   0.5437   0.0002
  48 C   :2pz   -0.0000  -0.0000   0.0000   0.0000   0.0000  -0.0000  -0.0136
  49 C   :2px   -0.0549  -0.0290   0.1182   0.0654   0.2738  -0.0732  -0.0001
  50 C   :2py   -0.0915  -0.1297  -0.0324  -0.0535  -0.0799  -0.1537  -0.0000
  52 C   :3d2-   0.0038  -0.0056  -0.0029   0.0046  -0.0205  -0.0113  -0.0000
  55 C   :3d1+  -0.0000  -0.0000  -0.0000  -0.0000   0.0000  -0.0000   0.0146
  56 C   :3d2+  -0.0019   0.0070  -0.0053   0.0046  -0.0114   0.0196   0.0000
  58 C   :1s    -0.0847   0.1123   0.0073  -0.0190   0.0057  -0.0881  -0.0000
  59 C   :1s    -0.0389  -0.0317   0.0344   0.0043  -0.0195  -0.0266  -0.0000
  60 C   :2px   -0.0964  -0.0428  -0.2415  -0.3342   0.4156  -0.1574  -0.0001
  61 C   :2py   -0.2303  -0.1463   0.0733   0.0826  -0.1550  -0.5468  -0.0001
  62 C   :2pz    0.0000   0.0000  -0.0000  -0.0000   0.0000   0.0000   0.0215
  63 C   :2px    0.0446  -0.0330   0.1074   0.0427  -0.2790   0.0917   0.0000
  64 C   :2py    0.0703  -0.1336  -0.0475  -0.0612   0.1175   0.1286   0.0000
  66 C   :3d2-  -0.0004   0.0051   0.0004  -0.0045  -0.0203  -0.0056  -0.0000
  69 C   :3d1+  -0.0000   0.0000  -0.0000   0.0000   0.0000  -0.0000   0.0132
  70 C   :3d2+  -0.0010  -0.0092   0.0043  -0.0031  -0.0130   0.0187   0.0000
  72 C   :1s     0.0088  -0.1121  -0.0063  -0.0653   0.0822   0.1039   0.0000
  73 C   :1s     0.0397  -0.0530  -0.0703   0.0216   0.1145  -0.0627  -0.0000
  74 C   :2px   -0.1888  -0.3252   0.2976   0.1006  -0.3430  -0.0041   0.0000
  75 C   :2py   -0.0746  -0.1245  -0.0067  -0.1929   0.2131   0.2393   0.0001
  76 C   :2pz    0.0000   0.0000  -0.0000   0.0000   0.0000  -0.0001   0.2371
  77 C   :2px    0.0486   0.1446  -0.0806  -0.0246   0.0394  -0.0112  -0.0000
  78 C   :2py    0.0294   0.0042  -0.0468   0.0685   0.0186  -0.0879  -0.0000
  79 C   :2pz   -0.0000  -0.0000   0.0000  -0.0000  -0.0000   0.0000  -0.0166
  80 C   :3d2-   0.0101  -0.0072   0.0016   0.0151  -0.0124  -0.0085  -0.0000
  83 C   :3d1+  -0.0000   0.0000  -0.0000  -0.0000   0.0000  -0.0000   0.0107
  84 C   :3d2+  -0.0023  -0.0026   0.0089   0.0003  -0.0065   0.0219   0.0000
  86 C   :1s    -0.0685   0.1102  -0.0121   0.0833   0.0779   0.1166   0.0000
  87 C   :1s     0.0003   0.0585   0.0862  -0.0407   0.1171  -0.0363  -0.0000
  88 C   :2px    0.2316  -0.1817   0.3876   0.0777   0.3247   0.0312  -0.0000
  89 C   :2py    0.0380  -0.0687   0.1034  -0.2808  -0.1937  -0.2209  -0.0000
  90 C   :2pz   -0.0000  -0.0000   0.0000  -0.0000  -0.0000   0.0001  -0.2594
  91 C   :2px   -0.0265   0.0767  -0.1156  -0.0251  -0.0562   0.0076   0.0000
  92 C   :2py   -0.0149   0.0073  -0.0768   0.1053  -0.0175   0.0840   0.0000
  93 C   :2pz    0.0000  -0.0000  -0.0000   0.0000   0.0000  -0.0000   0.0216
  94 C   :3d2-   0.0041   0.0105   0.0001  -0.0165  -0.0105  -0.0075  -0.0000
  97 C   :3d1+  -0.0000  -0.0000  -0.0000   0.0000   0.0000  -0.0000   0.0123
  98 C   :3d2+   0.0007  -0.0001  -0.0128   0.0017  -0.0064   0.0220   0.0000
 100 C   :1s     0.0587   0.0808  -0.0625  -0.1124  -0.0679   0.0009  -0.0000
 101 C   :1s     0.0320  -0.0246  -0.0309   0.0365  -0.0167   0.0442   0.0000
 102 C   :2px   -0.1982   0.2339  -0.3409  -0.0222  -0.1978   0.0842   0.0001
 103 C   :2py   -0.3039  -0.1664  -0.2551   0.2998  -0.0020   0.1354   0.0000
 104 C   :2pz   -0.0000   0.0000  -0.0000  -0.0000  -0.0000   0.0001  -0.3887
 105 C   :2px    0.0718  -0.0928   0.0735   0.0086   0.0450  -0.0093  -0.0000
 106 C   :2py    0.0837   0.0558   0.0692  -0.1031   0.0076  -0.0497  -0.0000
 107 C   :2pz    0.0000  -0.0000   0.0000   0.0000   0.0000  -0.0000   0.0356
 108 C   :3d2-  -0.0005   0.0168   0.0031  -0.0108  -0.0162  -0.0080  -0.0000
 112 C   :3d2+  -0.0106   0.0080  -0.0074   0.0145  -0.0015   0.0083   0.0000
 114 C   :1s     0.0669  -0.0383   0.0101  -0.1523   0.0770  -0.0447  -0.0000
 115 C   :1s    -0.0357  -0.0085  -0.0667  -0.0375   0.0247   0.0008  -0.0000
 116 C   :2px    0.1862  -0.2907  -0.0394  -0.2316   0.1823  -0.0322  -0.0000
 117 C   :2py    0.3098   0.2283   0.3436  -0.2230  -0.1165  -0.1369  -0.0000
 118 C   :2pz    0.0000  -0.0000  -0.0000  -0.0000  -0.0000   0.0001  -0.3677
 119 C   :2px   -0.0799   0.1010  -0.0243   0.0503  -0.0344   0.0036  -0.0000
 120 C   :2py   -0.0816  -0.0657  -0.0570   0.0607   0.0347   0.0122  -0.0000
 121 C   :2pz   -0.0000   0.0000  -0.0000   0.0000   0.0000  -0.0000   0.0233
 122 C   :3d2-  -0.0013   0.0182  -0.0011  -0.0042  -0.0093  -0.0012   0.0000
 126 C   :3d2+  -0.0069   0.0066  -0.0027   0.0109  -0.0123   0.0073   0.0000
 128 C   :1s     0.0241  -0.1645   0.0026   0.0895  -0.0836   0.1602   0.0000
 129 C   :1s     0.0398  -0.0690   0.0828  -0.0513  -0.0997   0.0095   0.0000
 130 C   :2px    0.1108   0.2314   0.2732   0.1877  -0.3960   0.1754   0.0001
 131 C   :2py   -0.0018  -0.2697  -0.0909   0.0553   0.0327   0.0891   0.0000
 132 C   :2pz    0.0000   0.0000   0.0000   0.0000  -0.0000   0.0001  -0.1917
 133 C   :2px   -0.0099  -0.1208  -0.0932  -0.1031   0.0589  -0.0064  -0.0000
 134 C   :2py    0.0321   0.1281   0.0994   0.0006  -0.0733  -0.0234  -0.0000
 135 C   :2pz    0.0000  -0.0000  -0.0000  -0.0000   0.0000  -0.0000   0.0308
 136 C   :3d2-  -0.0000   0.0070   0.0088   0.0048  -0.0110  -0.0178  -0.0000
 137 C   :3d1-  -0.0000   0.0000   0.0000  -0.0000  -0.0000   0.0000  -0.0134
 140 C   :3d2+  -0.0045   0.0041  -0.0064   0.0165  -0.0059   0.0200   0.0000
 142 O   :1s    -0.0278  -0.0208   0.0175  -0.0532   0.0279  -0.0696  -0.0000
 143 O   :1s    -0.0116  -0.0097   0.0069  -0.0028   0.0001  -0.0117  -0.0000
 144 O   :2px   -0.1178  -0.0502  -0.0527  -0.0323   0.0466  -0.0403  -0.0000
 145 O   :2py    0.0495   0.1544   0.0805  -0.0855   0.0022  -0.1407  -0.0000
 146 O   :2pz   -0.0000   0.0000   0.0000  -0.0000   0.0000  -0.0000   0.0914
 147 O   :2px    0.0103   0.0046   0.0043   0.0136  -0.0040   0.0006  -0.0000
 148 O   :2py    0.0115   0.0069   0.0053   0.0124  -0.0132   0.0122   0.0000
 149 O   :2pz    0.0000   0.0000   0.0000   0.0000  -0.0000  -0.0000   0.0145
 155 H   :1s    -0.1761   0.2228  -0.0042  -0.1730   0.1556   0.0682   0.0000
 156 H   :1s     0.0255  -0.0232   0.0083   0.0223  -0.0063   0.0002   0.0000
 160 H   :1s    -0.0853  -0.2386  -0.0056  -0.1850  -0.1405   0.0861   0.0000
 161 H   :1s     0.0125   0.0278   0.0073   0.0227   0.0042  -0.0000   0.0000
 165 H   :1s     0.0781  -0.0912  -0.1571   0.1684   0.0305  -0.2155  -0.0001
 166 H   :1s    -0.0066   0.0166   0.0162  -0.0244  -0.0198   0.0012   0.0000
 170 H   :1s     0.1308   0.1208  -0.0996   0.1304  -0.0572  -0.2271  -0.0001
 171 H   :1s    -0.0370  -0.0473  -0.0055  -0.0161   0.0325   0.0101   0.0000
 175 H   :1s     0.0672  -0.0381   0.2142  -0.2129  -0.0499  -0.2040  -0.0001
 176 H   :1s    -0.0098   0.0087  -0.0249   0.0266   0.0215  -0.0035  -0.0000
 180 H   :1s    -0.0395  -0.2584   0.0165   0.1859   0.1468   0.0568   0.0000
 181 H   :1s     0.0086   0.0317  -0.0070  -0.0204  -0.0046   0.0013   0.0000
 185 H   :1s    -0.2215   0.2236  -0.0495   0.2086  -0.1538   0.0598   0.0000
 186 H   :1s     0.0363  -0.0244   0.0020  -0.0308   0.0053  -0.0049  -0.0000
 190 H   :1s     0.0970   0.0545   0.0521   0.0459  -0.0666   0.0510   0.0000
 191 H   :1s    -0.0338  -0.0138  -0.0146  -0.0019   0.0007   0.0033   0.0000

    Orbital        36       37       38       39       40       41       42
   6 C   :2pz    0.1673  -0.0365  -0.4204  -0.2836   0.3715   0.1617   0.4200
   9 C   :2pz   -0.0069   0.0061  -0.0023  -0.0386   0.0421   0.0766   0.1545
  11 C   :3d1-  -0.0086  -0.0150  -0.0002   0.0313   0.0295   0.0331  -0.0423
  13 C   :3d1+  -0.0132  -0.0136   0.0066   0.0250   0.0292   0.0498   0.0117
  20 C   :2pz   -0.1817  -0.4035  -0.0823   0.4396   0.1678   0.1548  -0.4201
  23 C   :2pz    0.0115  -0.0035   0.0068   0.0585   0.0134   0.0711  -0.1575
  25 C   :3d1-  -0.0137  -0.0061   0.0205   0.0130  -0.0550  -0.0545  -0.0266
  27 C   :3d1+   0.0065   0.0065  -0.0035  -0.0000   0.0110   0.0234  -0.0312
  34 C   :2pz   -0.3621  -0.2720   0.2776  -0.0658  -0.4226  -0.3949   0.3199
  37 C   :2pz    0.0119  -0.0012   0.0007  -0.0030  -0.0456  -0.1096   0.0536
  39 C   :3d1-   0.0055   0.0083  -0.0008  -0.0245  -0.0011  -0.0207   0.0110
  41 C   :3d1+   0.0056  -0.0195  -0.0126   0.0592  -0.0035  -0.0110  -0.0744
  48 C   :2pz   -0.2936   0.2958   0.3343  -0.4824   0.1442   0.3544   0.0063
  51 C   :2pz    0.0294  -0.0151  -0.0156  -0.1209   0.0356   0.0780   0.0228
  53 C   :3d1-  -0.0203  -0.0039  -0.0150  -0.0360   0.0260  -0.0844  -0.0228
  55 C   :3d1+  -0.0064  -0.0187   0.0122  -0.0259  -0.0513  -0.0250   0.0741
  62 C   :2pz    0.3106   0.3098   0.3576   0.4689  -0.1140   0.3552  -0.0245
  65 C   :2pz   -0.0153  -0.0209  -0.0036   0.1136  -0.0385   0.0847  -0.0312
  67 C   :3d1-  -0.0192   0.0028   0.0141  -0.0380   0.0295   0.0880   0.0252
  69 C   :3d1+  -0.0058   0.0164  -0.0131  -0.0292  -0.0531   0.0209  -0.0747
  76 C   :2pz    0.3599   0.2929  -0.2314  -0.1649  -0.3934  -0.4152  -0.2937
  79 C   :2pz   -0.0250   0.0040  -0.0107  -0.0281  -0.0467  -0.1067  -0.0625
  81 C   :3d1-   0.0085   0.0070   0.0045   0.0113  -0.0024   0.0206  -0.0311
  83 C   :3d1+  -0.0019  -0.0088  -0.0225  -0.0535   0.0311   0.0036   0.0700
  90 C   :2pz   -0.3444   0.3110  -0.2574   0.1672   0.3760  -0.4035  -0.3322
  93 C   :2pz    0.0064   0.0033  -0.0063   0.0216   0.0432  -0.1083  -0.0745
  95 C   :3d1-   0.0073  -0.0068  -0.0042   0.0109  -0.0021  -0.0230   0.0274
  97 C   :3d1+  -0.0033   0.0079   0.0211  -0.0542   0.0335  -0.0053  -0.0735
 104 C   :2pz   -0.1285  -0.0389  -0.3910   0.2770  -0.3932   0.1791   0.4295
 107 C   :2pz    0.0081   0.0120  -0.0057   0.0390  -0.0469   0.0847   0.1737
 109 C   :3d1-  -0.0107   0.0165  -0.0025   0.0321   0.0280  -0.0331   0.0403
 111 C   :3d1+  -0.0129   0.0152  -0.0081   0.0265   0.0270  -0.0468  -0.0092
 118 C   :2pz    0.2307  -0.4319  -0.0184  -0.4315  -0.1213   0.1111  -0.4447
 121 C   :2pz    0.0009  -0.0215   0.0160  -0.0571  -0.0112   0.0753  -0.1720
 123 C   :3d1-  -0.0123   0.0060  -0.0193   0.0082  -0.0587   0.0617   0.0235
 125 C   :3d1+   0.0074  -0.0063   0.0049   0.0035   0.0112  -0.0231   0.0434
 132 C   :2pz    0.3336  -0.2398   0.2895   0.1160   0.4492  -0.4422   0.3755
 135 C   :2pz   -0.0422   0.0208  -0.0259   0.0010   0.0342  -0.1036   0.0927
 137 C   :3d1-   0.0129  -0.0122   0.0060  -0.0209   0.0075   0.0175  -0.0126
 139 C   :3d1+   0.0062   0.0222   0.0131   0.0543  -0.0055   0.0169   0.0634
 146 O   :2pz   -0.1772   0.1016  -0.1211  -0.0674  -0.1764   0.1925  -0.0959
 149 O   :2pz   -0.0262   0.0188  -0.0239  -0.0056  -0.0357   0.0392  -0.0507
 151 O   :3d1-   0.0024  -0.0025   0.0027   0.0026   0.0052  -0.0096   0.0157
 159 H   :2pz    0.0037  -0.0007  -0.0101  -0.0053   0.0064   0.0042   0.0142
 164 H   :2pz   -0.0042  -0.0095  -0.0019   0.0079   0.0029   0.0038  -0.0143
 184 H   :2pz   -0.0030  -0.0010  -0.0093   0.0053  -0.0069   0.0043   0.0145
 189 H   :2pz    0.0054  -0.0106  -0.0006  -0.0091  -0.0020   0.0028  -0.0177

    Orbital        43       44       45       46       47       48
   1 C   :1s     0.0108  -0.0105   0.0189   0.0139  -0.0125  -0.0102
   2 C   :1s     0.0867   0.0483   0.2704   0.0706   0.2666  -0.0761
   3 C   :1s    -0.1465   0.3321   0.1104  -0.1951   0.9731   0.1543
   4 C   :2px   -0.2020  -0.1834  -0.1452   0.1954  -0.1173   0.0288
   5 C   :2py   -0.1747  -0.0438   0.0543   0.1564   0.3683   0.0681
   7 C   :2px   -0.0706  -0.1367  -0.0454   0.1758  -0.0869   0.0159
   8 C   :2py   -0.0923  -0.0839  -0.0145   0.0954   0.3345   0.0947
  10 C   :3d2-   0.0380  -0.0521   0.0413   0.0610  -0.1503  -0.0434
  12 C   :3d0    0.0038   0.0142   0.0239   0.0021   0.0199  -0.0100
  14 C   :3d2+  -0.0376  -0.0175  -0.0418   0.0718   0.0577   0.0149
  15 C   :1s    -0.0078  -0.0112   0.0203   0.0099  -0.0085   0.0019
  16 C   :1s    -0.0603   0.0199   0.2534  -0.1474  -0.3110   0.0042
  17 C   :1s     0.1313   0.2972   0.0340  -0.6363  -0.5045   0.0070
  18 C   :2px    0.0685  -0.1099  -0.1401   0.2320   0.1230  -0.0326
  19 C   :2py   -0.2484   0.1110   0.1053  -0.0767   0.4179   0.1204
  21 C   :2px    0.0104  -0.0515  -0.0300   0.1942   0.0442  -0.0267
  22 C   :2py   -0.1218   0.0855   0.1212  -0.1237   0.3862   0.1285
  24 C   :3d2-  -0.0163   0.0383   0.0262  -0.0732   0.0907   0.0286
  26 C   :3d0   -0.0025   0.0132   0.0228  -0.0117  -0.0289  -0.0071
  28 C   :3d2+   0.0441   0.0390  -0.0747  -0.0864  -0.0636   0.0150
  29 C   :1s    -0.0137  -0.0006   0.0041   0.0135   0.0010   0.0143
  30 C   :1s     0.0311   0.1512  -0.1759   0.2075  -0.1687   0.0508
  31 C   :1s     0.4058   0.2491  -0.5063   0.0793  -0.3890  -0.2242
  32 C   :2px   -0.0523  -0.3983   0.1798   0.2406   0.1199  -0.1224
  33 C   :2py   -0.1199   0.0347   0.2074  -0.1069   0.1286   0.0369
  35 C   :2px   -0.1012  -0.3080   0.1555   0.4651   0.1736  -0.0658
  36 C   :2py   -0.0170  -0.0021   0.1208  -0.1988   0.0118   0.0665
  38 C   :3d2-   0.0735  -0.0706  -0.0677   0.0694   0.0456  -0.0281
  40 C   :3d0    0.0107   0.0189   0.0025   0.0314  -0.0264  -0.0173
  42 C   :3d2+  -0.0706  -0.0142   0.0979   0.0594   0.0770  -0.0007
  43 C   :1s    -0.0099   0.0016   0.0072  -0.0032   0.0200  -0.0145
  44 C   :1s     0.0830   0.0121   0.3590   0.2471   0.3594  -0.3821
  45 C   :1s     0.4657  -0.0472   0.7587   0.7373   0.2646  -0.6012
  46 C   :2px   -0.1446  -0.3375   0.0375  -0.0263   0.2090   0.1967
  47 C   :2py   -0.5070   0.0546   0.1420   0.0329  -0.2271   0.0942
  49 C   :2px   -0.2252  -0.4473   0.1025   0.1228   0.1526   0.1918
  50 C   :2py   -0.5787   0.0702   0.3599   0.2538  -0.0671   0.0373
  52 C   :3d2-  -0.0676   0.1545   0.0718  -0.0338  -0.0278   0.0112
  54 C   :3d0    0.0170  -0.0016   0.0524   0.0467   0.0201  -0.0316
  56 C   :3d2+   0.1026   0.1053  -0.1031   0.0571   0.0142  -0.0271
  57 C   :1s     0.0073  -0.0010   0.0037  -0.0247  -0.0097   0.0033
  58 C   :1s    -0.0632  -0.0455   0.3375  -0.2703  -0.4167   0.2787
  59 C   :1s    -0.3619  -0.1628   0.7689   0.1841  -0.7610   0.4745
  60 C   :2px   -0.1280  -0.3280  -0.0463  -0.0429  -0.2539  -0.1827
  61 C   :2py   -0.4995   0.0694  -0.0431  -0.1498   0.0315   0.2364
  63 C   :2px   -0.0683  -0.5109  -0.0930  -0.0152   0.0095  -0.0222
  64 C   :2py   -0.6810   0.1556  -0.3325   0.0408   0.1291   0.1978
  66 C   :3d2-   0.0786  -0.1537   0.0527  -0.0055   0.0480  -0.0040
  68 C   :3d0   -0.0145  -0.0068   0.0557  -0.0006  -0.0551   0.0441
  70 C   :3d2+  -0.1151  -0.1055  -0.0957   0.0119  -0.0223   0.0547
  71 C   :1s     0.0145  -0.0015   0.0007   0.0156  -0.0189  -0.0215
  72 C   :1s    -0.0620   0.1289  -0.1769   0.2510  -0.1218  -0.1472
  73 C   :1s    -0.4919   0.2275  -0.4240   0.2082   0.1527   0.1644
  74 C   :2px    0.0170  -0.3659   0.0475   0.1349  -0.2503   0.0777
  75 C   :2py   -0.1618   0.1878  -0.2232   0.1131   0.1377  -0.0000
  77 C   :2px    0.1058  -0.3414   0.0706   0.1413  -0.4836  -0.0912
  78 C   :2py   -0.1097   0.1970  -0.1637   0.0080   0.1321   0.0915
  80 C   :3d2-  -0.0347   0.0468  -0.0389  -0.0076   0.1632   0.0256
  82 C   :3d0   -0.0108   0.0147   0.0052   0.0234  -0.0185   0.0028
  84 C   :3d2+   0.1024   0.0697   0.0832  -0.0184  -0.0070  -0.0592
  85 C   :1s    -0.0114  -0.0031   0.0053   0.0144  -0.0206  -0.0008
  86 C   :1s     0.0475  -0.1752  -0.1537   0.2563  -0.1197   0.1996
  87 C   :1s     0.3094  -0.1905  -0.4759   0.2152   0.1842   0.5019
  88 C   :2px   -0.0153  -0.3294  -0.0957  -0.3461   0.0235  -0.0417
  89 C   :2py   -0.1386   0.1641   0.2651   0.0207   0.0353  -0.1857
  91 C   :2px    0.0716  -0.1978  -0.0859  -0.5583   0.0445   0.0877
  92 C   :2py   -0.0166   0.1324   0.1880   0.0281  -0.0534  -0.1388
  94 C   :3d2-   0.0315  -0.0365  -0.0586  -0.1034   0.0255   0.0763
  96 C   :3d0    0.0121  -0.0226   0.0040   0.0360   0.0075   0.0235
  98 C   :3d2+  -0.0963  -0.0658   0.0967  -0.0367  -0.0181   0.0003
  99 C   :1s    -0.0101   0.0060   0.0222   0.0162  -0.0114   0.0099
 100 C   :1s    -0.0509  -0.0806   0.2732  -0.1483  -0.0074   0.2696
 101 C   :1s     0.2158  -0.2728   0.0199  -0.8864   0.2715   0.3017
 102 C   :2px   -0.1908  -0.1353   0.1311  -0.2935   0.0083  -0.1458
 103 C   :2py   -0.2040   0.0062  -0.0257   0.0632  -0.0864  -0.3868
 105 C   :2px   -0.0528  -0.0717   0.0661  -0.2871  -0.0100  -0.2288
 106 C   :2py   -0.1401  -0.0267   0.0593   0.0565  -0.1321  -0.3272
 108 C   :3d2-  -0.0282   0.0321   0.0694   0.1503  -0.0320   0.0115
 110 C   :3d0   -0.0033  -0.0167   0.0252  -0.0079   0.0049   0.0248
 112 C   :3d2+   0.0393   0.0088  -0.0426   0.0405   0.0014   0.1218
 113 C   :1s     0.0098   0.0104   0.0207   0.0185  -0.0052   0.0117
 114 C   :1s     0.0575   0.0032   0.2419   0.0901  -0.0281  -0.2950
 115 C   :1s    -0.2485  -0.1824  -0.0253  -0.1769   0.0222  -0.8885
 116 C   :2px    0.0495  -0.0783   0.0861  -0.1592   0.0363  -0.3591
 117 C   :2py   -0.2305   0.0818  -0.0173   0.2861  -0.1001  -0.1601
 119 C   :2px   -0.0592  -0.0275  -0.0282  -0.0957   0.0110  -0.2541
 120 C   :2py   -0.1483   0.1342  -0.0133   0.3271  -0.2680  -0.1478
 122 C   :3d2-   0.0175  -0.0293   0.0078  -0.1260   0.0365  -0.0490
 124 C   :3d0    0.0058  -0.0140   0.0266   0.0071  -0.0005  -0.0253
 126 C   :3d2+  -0.0653  -0.0067  -0.0835  -0.0425  -0.0063  -0.1557
 127 C   :1s     0.0142  -0.0089   0.0066   0.0248   0.0134   0.0253
 128 C   :1s     0.0190  -0.2297  -0.0990   0.3736   0.1013   0.2969
 129 C   :1s    -0.2913  -0.2234  -0.3658   0.3242  -0.1163   0.1744
 130 C   :2px   -0.1070  -0.3646  -0.2396  -0.1305   0.1869  -0.3525
 131 C   :2py   -0.2352   0.0775  -0.2378   0.1745  -0.0820  -0.0167
 133 C   :2px   -0.0801  -0.2328  -0.1983  -0.1894   0.1504  -0.3403
 134 C   :2py    0.0915  -0.0320  -0.0254  -0.0167  -0.0497   0.0153
 136 C   :3d2-  -0.0825   0.0734  -0.0439   0.0318  -0.0358   0.1007
 138 C   :3d0   -0.0124  -0.0233  -0.0002   0.0330  -0.0140   0.0185
 140 C   :3d2+   0.0866   0.0012   0.0864   0.0148   0.0203   0.1422
 141 O   :1s    -0.0073   0.0006   0.0003   0.0035  -0.0106  -0.0030
 142 O   :1s    -0.1390   0.0660  -0.0642   0.0057  -0.1422  -0.0781
 143 O   :1s     0.0117   0.0253  -0.0328  -0.0511  -0.0043  -0.0337
 144 O   :2px   -0.0314   0.0310  -0.0053  -0.0407  -0.0518   0.0279
 145 O   :2py   -0.1874   0.0885  -0.1346  -0.0840  -0.0363  -0.2356
 147 O   :2px   -0.0001   0.0281   0.0054  -0.0025   0.0291   0.0257
 148 O   :2py    0.0231  -0.0208  -0.0112  -0.0404   0.0222  -0.0653
 150 O   :3d2-   0.0071  -0.0191   0.0012  -0.0080   0.0058  -0.0284
 154 O   :3d2+  -0.0039  -0.0060  -0.0118  -0.0101   0.0086  -0.0276
 155 H   :1s    -0.0954   0.0804  -0.1186  -0.1087   0.1670   0.0930
 156 H   :1s     0.0122   0.0214   0.0448  -0.0189   0.1354   0.0280
 157 H   :2px   -0.0126  -0.0017  -0.0118   0.0051   0.0292   0.0117
 158 H   :2py   -0.0064  -0.0066  -0.0009   0.0179  -0.0043  -0.0034
 160 H   :1s     0.0825   0.0909  -0.1431  -0.1343   0.0479   0.0352
 161 H   :1s    -0.0092   0.0174   0.0351  -0.0683  -0.0719  -0.0156
 162 H   :2px    0.0065   0.0020  -0.0124  -0.0137  -0.0065   0.0025
 163 H   :2py   -0.0119   0.0065   0.0102  -0.0068   0.0261   0.0057
 165 H   :1s     0.1736  -0.0895  -0.1502  -0.0456  -0.0257  -0.0290
 166 H   :1s     0.0337   0.0343  -0.0933   0.0155  -0.0247  -0.0171
 167 H   :2px    0.0032  -0.0196  -0.0030   0.0207   0.0146  -0.0080
 168 H   :2py    0.0110  -0.0016  -0.0221  -0.0146  -0.0051   0.0022
 170 H   :1s    -0.1860  -0.1092  -0.1127  -0.0310   0.1772   0.1396
 171 H   :1s    -0.0464   0.0624  -0.0717   0.0497  -0.0205   0.0662
 172 H   :2px    0.0035  -0.0177   0.0044   0.0066  -0.0379  -0.0051
 173 H   :2py    0.0108   0.0124   0.0157   0.0007  -0.0056  -0.0087
 175 H   :1s     0.1690   0.1137  -0.1444  -0.0784   0.0669   0.0019
 176 H   :1s     0.0250  -0.0282  -0.0897   0.0490  -0.0147   0.0501
 177 H   :2px    0.0032  -0.0135  -0.0112  -0.0306   0.0030   0.0122
 178 H   :2py    0.0100   0.0139  -0.0191  -0.0002   0.0010  -0.0002
 180 H   :1s     0.0728  -0.0441  -0.1736  -0.1976   0.0525  -0.0873
 181 H   :1s     0.0093  -0.0249   0.0403  -0.0932   0.0523   0.0580
 182 H   :2px   -0.0123  -0.0030   0.0148   0.0109  -0.0045  -0.0181
 183 H   :2py   -0.0064  -0.0041  -0.0017  -0.0211   0.0043  -0.0238
 185 H   :1s    -0.1356  -0.0286  -0.1736  -0.1576  -0.0073  -0.1795
 186 H   :1s    -0.0140  -0.0154   0.0095  -0.0354  -0.0117  -0.1542
 187 H   :2px    0.0094  -0.0015   0.0151   0.0110  -0.0001   0.0269
 188 H   :2py   -0.0109   0.0066  -0.0042   0.0270  -0.0089   0.0004
 190 H   :1s     0.0350  -0.0903  -0.0238  -0.0709   0.1405  -0.1678
 191 H   :1s    -0.0071   0.0064  -0.0059  -0.0172  -0.0330   0.0039
 193 H   :2py   -0.0101   0.0123  -0.0075  -0.0018   0.0032   0.0179

  Total CPU  time used in SIRIUS :  8 minutes 35 seconds
  Total wall time used in SIRIUS :  8 minutes 45 seconds

 
     Date and time (Linux)  : Mon Apr  9 17:20:24 2018
     Host name              : s51p34.deic.sdu.dk                      


                     .---------------------------------------.
                     | End of Wave Function Section (SIRIUS) |
                     `---------------------------------------'

  Total CPU  time used in DALTON:  8 minutes 36 seconds
  Total wall time used in DALTON:  8 minutes 46 seconds

 
     Date and time (Linux)  : Mon Apr  9 17:20:24 2018
     Host name              : s51p34.deic.sdu.dk                      
