

     ************************************************************************
     *************** Dalton - An Electronic Structure Program ***************
     ************************************************************************

    This is output from DALTON release Dalton2017.alpha (2016)
         ( Web site: http://daltonprogram.org )

   ----------------------------------------------------------------------------

    NOTE:
     
    Dalton is an experimental code for the evaluation of molecular
    properties using (MC)SCF, DFT, CI, and CC wave functions.
    The authors accept no responsibility for the performance of
    the code or for the correctness of the results.
     
    The code (in whole or part) is provided under a licence and
    is not to be reproduced for further distribution without
    the written permission of the authors or their representatives.
     
    See the home page "http://daltonprogram.org" for further information.
     
    If results obtained with this code are published,
    the appropriate citations would be both of:
     
       K. Aidas, C. Angeli, K. L. Bak, V. Bakken, R. Bast,
       L. Boman, O. Christiansen, R. Cimiraglia, S. Coriani,
       P. Dahle, E. K. Dalskov, U. Ekstroem,
       T. Enevoldsen, J. J. Eriksen, P. Ettenhuber, B. Fernandez,
       L. Ferrighi, H. Fliegl, L. Frediani, K. Hald, A. Halkier,
       C. Haettig, H. Heiberg, T. Helgaker, A. C. Hennum,
       H. Hettema, E. Hjertenaes, S. Hoest, I.-M. Hoeyvik,
       M. F. Iozzi, B. Jansik, H. J. Aa. Jensen, D. Jonsson,
       P. Joergensen, J. Kauczor, S. Kirpekar,
       T. Kjaergaard, W. Klopper, S. Knecht, R. Kobayashi, H. Koch,
       J. Kongsted, A. Krapp, K. Kristensen, A. Ligabue,
       O. B. Lutnaes, J. I. Melo, K. V. Mikkelsen, R. H. Myhre,
       C. Neiss, C. B. Nielsen, P. Norman, J. Olsen,
       J. M. H. Olsen, A. Osted, M. J. Packer, F. Pawlowski,
       T. B. Pedersen, P. F. Provasi, S. Reine, Z. Rinkevicius,
       T. A. Ruden, K. Ruud, V. Rybkin, P. Salek, C. C. M. Samson,
       A. Sanchez de Meras, T. Saue, S. P. A. Sauer,
       B. Schimmelpfennig, K. Sneskov, A. H. Steindal,
       K. O. Sylvester-Hvid, P. R. Taylor, A. M. Teale,
       E. I. Tellgren, D. P. Tew, A. J. Thorvaldsen, L. Thoegersen,
       O. Vahtras, M. A. Watson, D. J. D. Wilson, M. Ziolkowski
       and H. Agren,
       "The Dalton quantum chemistry program system",
       WIREs Comput. Mol. Sci. 2014, 4:269–284 (doi: 10.1002/wcms.1172)
     
    and
     
       Dalton, a Molecular Electronic Structure Program,
       Release Dalton2017.alpha (2016), see http://daltonprogram.org
   ----------------------------------------------------------------------------

    Authors in alphabetical order (major contribution(s) in parenthesis):

  Kestutis Aidas,           Vilnius University,           Lithuania   (QM/MM)
  Celestino Angeli,         University of Ferrara,        Italy       (NEVPT2)
  Keld L. Bak,              UNI-C,                        Denmark     (AOSOPPA, non-adiabatic coupling, magnetic properties)
  Vebjoern Bakken,          University of Oslo,           Norway      (DALTON; geometry optimizer, symmetry detection)
  Radovan Bast,             UiT The Arctic U. of Norway,  Norway      (DALTON installation and execution frameworks)
  Pablo Baudin,             University of Valencia,       Spain       (Cholesky excitation energies)
  Linus Boman,              NTNU,                         Norway      (Cholesky decomposition and subsystems)
  Ove Christiansen,         Aarhus University,            Denmark     (CC module)
  Renzo Cimiraglia,         University of Ferrara,        Italy       (NEVPT2)
  Sonia Coriani,            University of Trieste,        Italy       (CC module, MCD in RESPONS)
  Janusz Cukras,            University of Trieste,        Italy       (MChD in RESPONS)
  Paal Dahle,               University of Oslo,           Norway      (Parallelization)
  Erik K. Dalskov,          UNI-C,                        Denmark     (SOPPA)
  Thomas Enevoldsen,        Univ. of Southern Denmark,    Denmark     (SOPPA)
  Janus J. Eriksen,         Aarhus University,            Denmark     (Polarizable embedding model, TDA)
  Rasmus Faber,             University of Copenhagen,     Denmark     (Vib.avg. NMR with SOPPA, parallel AO-SOPPA)
  Berta Fernandez,          U. of Santiago de Compostela, Spain       (doublet spin, ESR in RESPONS)
  Lara Ferrighi,            Aarhus University,            Denmark     (PCM Cubic response)
  Heike Fliegl,             University of Oslo,           Norway      (CCSD(R12))
  Luca Frediani,            UiT The Arctic U. of Norway,  Norway      (PCM)
  Bin Gao,                  UiT The Arctic U. of Norway,  Norway      (Gen1Int library)
  Christof Haettig,         Ruhr-University Bochum,       Germany     (CC module)
  Kasper Hald,              Aarhus University,            Denmark     (CC module)
  Asger Halkier,            Aarhus University,            Denmark     (CC module)
  Frederik Beyer Hansen,    University of Copenhagen,     Denmark     (Parallel AO-SOPPA)
  Erik D. Hedegaard,        Univ. of Southern Denmark,    Denmark     (Polarizable embedding model, QM/MM)
  Hanne Heiberg,            University of Oslo,           Norway      (geometry analysis, selected one-electron integrals)
  Trygve Helgaker,          University of Oslo,           Norway      (DALTON; ABACUS, ERI, DFT modules, London, and much more)
  Alf Christian Hennum,     University of Oslo,           Norway      (Parity violation)
  Hinne Hettema,            University of Auckland,       New Zealand (quadratic response in RESPONS; SIRIUS supersymmetry)
  Eirik Hjertenaes,         NTNU,                         Norway      (Cholesky decomposition)
  Pi A. B. Haase,           University of Copenhagen,     Denmark     (Triplet AO-SOPPA)
  Maria Francesca Iozzi,    University of Oslo,           Norway      (RPA)
  Brano Jansik              Technical Univ. of Ostrava    Czech Rep.  (DFT cubic response)
  Hans Joergen Aa. Jensen,  Univ. of Southern Denmark,    Denmark     (DALTON; SIRIUS, RESPONS, ABACUS modules, London, and much more)
  Dan Jonsson,              UiT The Arctic U. of Norway,  Norway      (cubic response in RESPONS module)
  Poul Joergensen,          Aarhus University,            Denmark     (RESPONS, ABACUS, and CC modules)
  Maciej Kaminski,          University of Warsaw,         Poland      (CPPh in RESPONS)
  Joanna Kauczor,           Linkoeping University,        Sweden      (Complex polarization propagator (CPP) module)
  Sheela Kirpekar,          Univ. of Southern Denmark,    Denmark     (Mass-velocity & Darwin integrals)
  Wim Klopper,              KIT Karlsruhe,                Germany     (R12 code in CC, SIRIUS, and ABACUS modules)
  Stefan Knecht,            ETH Zurich,                   Switzerland (Parallel CI and MCSCF)
  Rika Kobayashi,           Australian National Univ.,    Australia   (DIIS in CC, London in MCSCF)
  Henrik Koch,              NTNU,                         Norway      (CC module, Cholesky decomposition)
  Jacob Kongsted,           Univ. of Southern Denmark,    Denmark     (Polarizable embedding model, QM/MM)
  Andrea Ligabue,           University of Modena,         Italy       (CTOCD, AOSOPPA)
  Nanna H. List             Univ. of Southern Denmark,    Denmark     (Polarizable embedding model)
  Ola B. Lutnaes,           University of Oslo,           Norway      (DFT Hessian)
  Juan I. Melo,             University of Buenos Aires,   Argentina   (LRESC, Relativistic Effects on NMR Shieldings)
  Kurt V. Mikkelsen,        University of Copenhagen,     Denmark     (MC-SCRF and QM/MM)
  Rolf H. Myhre,            NTNU,                         Norway      (Cholesky, subsystems and ECC2)
  Christian Neiss,          Univ. Erlangen-Nuernberg,     Germany     (CCSD(R12))
  Christian B. Nielsen,     University of Copenhagen,     Denmark     (QM/MM)
  Patrick Norman,           Linkoeping University,        Sweden      (Cubic response and complex frequency response in RESPONS)
  Jeppe Olsen,              Aarhus University,            Denmark     (SIRIUS CI/density modules)
  Jogvan Magnus H. Olsen,   Univ. of Southern Denmark,    Denmark     (Polarizable embedding model, QM/MM)
  Anders Osted,             Copenhagen University,        Denmark     (QM/MM)
  Martin J. Packer,         University of Sheffield,      UK          (SOPPA)
  Filip Pawlowski,          Kazimierz Wielki University,  Poland      (CC3)
  Morten N. Pedersen,       Univ. of Southern Denmark,    Denmark     (Polarizable embedding model)
  Thomas B. Pedersen,       University of Oslo,           Norway      (Cholesky decomposition)
  Patricio F. Provasi,      University of Northeastern,   Argentina   (Analysis of coupling constants in localized orbitals)
  Zilvinas Rinkevicius,     KTH Stockholm,                Sweden      (open-shell DFT, ESR)
  Elias Rudberg,            KTH Stockholm,                Sweden      (DFT grid and basis info)
  Torgeir A. Ruden,         University of Oslo,           Norway      (Numerical derivatives in ABACUS)
  Kenneth Ruud,             UiT The Arctic U. of Norway,  Norway      (DALTON; ABACUS magnetic properties and much more)
  Pawel Salek,              KTH Stockholm,                Sweden      (DALTON; DFT code)
  Claire C. M. Samson       University of Karlsruhe       Germany     (Boys localization, r12 integrals in ERI)
  Alfredo Sanchez de Meras, University of Valencia,       Spain       (CC module, Cholesky decomposition)
  Trond Saue,               Paul Sabatier University,     France      (direct Fock matrix construction)
  Stephan P. A. Sauer,      University of Copenhagen,     Denmark     (SOPPA(CCSD), SOPPA prop., AOSOPPA, vibrational g-factors)
  Bernd Schimmelpfennig,    Forschungszentrum Karlsruhe,  Germany     (AMFI module)
  Kristian Sneskov,         Aarhus University,            Denmark     (Polarizable embedding model, QM/MM)
  Arnfinn H. Steindal,      UiT The Arctic U. of Norway,  Norway      (parallel QM/MM, Polarizable embedding model)
  Casper Steinmann,         Univ. of Southern Denmark,    Denmark     (QFIT, Polarizable embedding model)
  K. O. Sylvester-Hvid,     University of Copenhagen,     Denmark     (MC-SCRF)
  Peter R. Taylor,          VLSCI/Univ. of Melbourne,     Australia   (Symmetry handling ABACUS, integral transformation)
  Andrew M. Teale,          University of Nottingham,     England     (DFT-AC, DFT-D)
  David P. Tew,             University of Bristol,        England     (CCSD(R12))
  Olav Vahtras,             KTH Stockholm,                Sweden      (triplet response, spin-orbit, ESR, TDDFT, open-shell DFT)
  David J. Wilson,          La Trobe University,          Australia   (DFT Hessian and DFT magnetizabilities)
  Hans Agren,               KTH Stockholm,                Sweden      (SIRIUS module, RESPONS, MC-SCRF solvation model)
 --------------------------------------------------------------------------------

     Date and time (Linux)  : Mon Feb 20 22:10:15 2017
     Host name              : c91n05                                  

 * Work memory size             :  1920000000 = 14.305 gigabytes.

 * Directories for basis set searches:
   1) /mount/scratch7/sdujk/olglu13/MCSCF/production/MP2_natorb/DZ
   2) /people/disk2/hjj/prog/gitDalton_hjaaj-srdft/build_hjaaj-srdft_intelmpi/basis


Compilation information
-----------------------

 Who compiled             | hjj
 Host                     | fe9
 System                   | Linux-2.6.32-358.el6.x86_64
 CMake generator          | Unix Makefiles
 Processor                | x86_64
 64-bit integers          | OFF
 MPI                      | ON
 Fortran compiler         | /opt/intel/2015.1/impi/5.0.2.044/intel64/bin/mpif9
                          | 0
 Fortran compiler version | ifort (IFORT) 15.0.1 20141023
 C compiler               | /opt/intel/2015.1/impi/5.0.2.044/intel64/bin/mpicc
 C compiler version       | icc (ICC) 15.0.1 20141023
 C++ compiler             | /opt/intel/2015.1/impi/5.0.2.044/intel64/bin/mpicx
                          | x
 C++ compiler version     | unknown
 BLAS                     | /opt/intel/2015.1/composer_xe_2015.1.133/mkl/lib/i
                          | ntel64/libmkl_intel_lp64.so;/opt/intel/2015.1/comp
                          | oser_xe_2015.1.133/mkl/lib/intel64/libmkl_sequenti
                          | al.so;/opt/intel/2015.1/composer_xe_2015.1.133/mkl
                          | /lib/intel64/libmkl_core.so;/usr/lib64/libpthread.
                          | so;/usr/lib64/libm.so
 LAPACK                   | /opt/intel/2015.1/composer_xe_2015.1.133/mkl/lib/i
                          | ntel64/libmkl_lapack95_lp64.a;/opt/intel/2015.1/co
                          | mposer_xe_2015.1.133/mkl/lib/intel64/libmkl_intel_
                          | lp64.so
 Static linking           | OFF
 Last Git revision        | 6d2e69d60936dff93a4707e872000b969cf0ff08
 Git branch               | hjaaj-srdft
 Configuration time       | 2016-12-19 21:34:20.997054

 * MPI parallel run using 20 processes.


   Content of the .dal input file
 ----------------------------------

**DALTON INPUT
.RUN WAVEFUNCTIONS
*MOLBAS
.SYMTHR
1.0D-2
**WAVEFUNCTIONS
.HF
.MP2
**END OF


   Content of the .mol file
 ----------------------------

BASIS
aug-cc-pVDZ
 8
 acrolein_sym
Atomtypes=4 Angstrom
Charge=6 Atoms=1
C          0.38420        0.00040        0.64770
Charge=8 Atoms=1
O         -0.00650       -0.00100        1.78740
Charge=6 Atoms=2
C         -0.48880       -0.00190       -0.53220
C          0.03500        0.00170       -1.75430
Charge=1 Atoms=4
H          1.47120        0.00400        0.41660
H         -1.55860       -0.00630       -0.35500
H          1.11190        0.00620       -1.89440
H         -0.57630        0.00040       -2.64800


       *******************************************************************
       *********** Output from DALTON general input processing ***********
       *******************************************************************

 --------------------------------------------------------------------------------
   Overall default print level:    0
   Print level for DALTON.STAT:    1

    Parallel calculation using MPI
    AO-direct calculation (in sections where implemented)
    HERMIT 1- and 2-electron integral sections will be executed
    "Old" integral transformation used (limited to max 255 basis functions)
    Wave function sections will be executed (SIRIUS module)
 --------------------------------------------------------------------------------


 Changes of defaults for *MOLBAS
 -------------------------------

 Symmetry detection threshold:  1.00E-02



   ****************************************************************************
   *************** Output of molecule and basis set information ***************
   ****************************************************************************


    The two title cards from your ".mol" input:
    ------------------------------------------------------------------------
 1:  8                                                                      
 2:  acrolein_sym                                                           
    ------------------------------------------------------------------------

  Coordinates are entered in Angstrom and converted to atomic units.
          - Conversion factor : 1 bohr = 0.52917721 A

  Atomic type no.    1
  --------------------
  Nuclear charge:   6.00000
  Number of symmetry independent centers:    1
  Number of basis sets to read;    2
  Basis set file used for this atomic type with Z =   6 :
     "/people/disk2/hjj/prog/gitDalton_hjaaj-srdft/build_hjaaj-srdft_intelmpi/basis/aug-cc-pVDZ"

  Atomic type no.    2
  --------------------
  Nuclear charge:   8.00000
  Number of symmetry independent centers:    1
  Number of basis sets to read;    2
  Basis set file used for this atomic type with Z =   8 :
     "/people/disk2/hjj/prog/gitDalton_hjaaj-srdft/build_hjaaj-srdft_intelmpi/basis/aug-cc-pVDZ"

  Atomic type no.    3
  --------------------
  Nuclear charge:   6.00000
  Number of symmetry independent centers:    2
  Number of basis sets to read;    2
  Basis set file used for this atomic type with Z =   6 :
     "/people/disk2/hjj/prog/gitDalton_hjaaj-srdft/build_hjaaj-srdft_intelmpi/basis/aug-cc-pVDZ"

  Atomic type no.    4
  --------------------
  Nuclear charge:   1.00000
  Number of symmetry independent centers:    4
  Number of basis sets to read;    2
  Basis set file used for this atomic type with Z =   1 :
     "/people/disk2/hjj/prog/gitDalton_hjaaj-srdft/build_hjaaj-srdft_intelmpi/basis/aug-cc-pVDZ"


                      SYMADD: Requested addition of symmetry
                      --------------------------------------

 Symmetry test threshold:  1.00E-02

@   The molecule is centered at center of mass and rotated
@   so principal axes of inertia are along coordinate axes.

 Symmetry class found: C(s)           

 Symmetry Independent Centres             
 ----------------------------
       8 :      0.00000000    -0.18985206     3.22343965  Isotope  1
       6 :      0.00000000     0.67652875     1.11796762  Isotope  1
       6 :      0.00000000    -0.83626892    -1.20680808  Isotope  1
       6 :      0.00000000     0.29054912    -3.45260249  Isotope  1
       1 :      0.00000000     2.75319904     0.80545283  Isotope  1
       1 :      0.00000000    -2.87438113    -0.99401189  Isotope  1
       1 :      0.00000000     2.33784268    -3.59461049  Isotope  1
       1 :      0.00000000    -0.76109016    -5.20780386  Isotope  1

 The following element was found:   X        


                         SYMGRP: Point group information
                         -------------------------------

@    Full point group is: C(s)           
@    Represented as:      Cs 

@  * The irrep name for each symmetry:    1: A'     2: A" 

   * The point group was generated by:

      Reflection in the yz-plane

   * Group multiplication table

        |  E   Oyz
   -----+----------
     E  |  E   Oyz
    Oyz | Oyz   E 

   * Character table

        |  E   Oyz
   -----+----------
    A'  |   1    1
    A"  |   1   -1

   * Direct product table

        | A'   A" 
   -----+----------
    A'  | A'   A" 
    A"  | A"   A' 


                                 Isotopic Masses
                                 ---------------

                           C          12.000000
                           O          15.994915
                           C          12.000000
                           C          12.000000
                           H           1.007825
                           H           1.007825
                           H           1.007825
                           H           1.007825

                       Total mass:    56.026215 amu
                       Natural abundance:  96.446 %

 Center-of-mass coordinates (a.u.):    0.000000    0.000000    0.000000
 Center-of-mass coordinates (Angs):    0.000000    0.000000    0.000000


  Atoms and basis sets
  --------------------

  Number of atom types :    4
  Total number of atoms:    8

  Basis set used is "aug-cc-pVDZ" from the basis set library.

  label    atoms   charge   prim   cont     basis
  ----------------------------------------------------------------------
  C           1    6.0000    35    23      [10s5p2d|4s3p2d]                                   
  O           1    8.0000    35    23      [10s5p2d|4s3p2d]                                   
  C           2    6.0000    35    23      [10s5p2d|4s3p2d]                                   
  H           4    1.0000    11     9      [5s2p|3s2p]                                        
  ----------------------------------------------------------------------
  total:      8   30.0000   184   128
  ----------------------------------------------------------------------
  Spherical harmonic basis used.

  Threshold for neglecting AO integrals:  1.00D-12


  Cartesian Coordinates (a.u.)
  ----------------------------

  Total number of coordinates:   24
  C       :     1  x   0.0000000000    2  y   0.6765287514    3  z   1.1179676199
  O       :     4  x   0.0000000000    5  y  -0.1898520631    6  z   3.2234396476
  C       :     7  x   0.0000000000    8  y  -0.8362689237    9  z  -1.2068080796
  C       :    10  x   0.0000000000   11  y   0.2905491179   12  z  -3.4526024910
  H       :    13  x   0.0000000000   14  y   2.7531990370   15  z   0.8054528328
  H       :    16  x   0.0000000000   17  y  -2.8743811292   18  z  -0.9940118886
  H       :    19  x   0.0000000000   20  y   2.3378426782   21  z  -3.5946104850
  H       :    22  x   0.0000000000   23  y  -0.7610901598   24  z  -5.2078038551


  Symmetry Coordinates
  --------------------

  Number of coordinates in each symmetry:    16    8

  Symmetry  A'  ( 1)

    1   C     y    2
    2   C     z    3
    3   O     y    5
    4   O     z    6
    5   C     y    8
    6   C     z    9
    7   C     y   11
    8   C     z   12
    9   H     y   14
   10   H     z   15
   11   H     y   17
   12   H     z   18
   13   H     y   20
   14   H     z   21
   15   H     y   23
   16   H     z   24

  Symmetry  A"  ( 2)

   17   C     x    1
   18   O     x    4
   19   C     x    7
   20   C     x   10
   21   H     x   13
   22   H     x   16
   23   H     x   19
   24   H     x   22


   Interatomic separations (in Angstrom):
   --------------------------------------

            C           O           C           C           H           H     
            ------      ------      ------      ------      ------      ------
 C     :    0.000000
 O     :    1.204809    0.000000
 C     :    1.467753    2.369210    0.000000
 C     :    2.427251    3.541944    1.329627    0.000000
 H     :    1.111300    2.015617    2.177580    2.602975    0.000000
 H     :    2.186304    2.645547    1.084385    2.120770    3.126525    0.000000
 H     :    2.644211    3.847924    2.101879    1.085984    2.338764    3.082447
 H     :    3.432812    4.471851    2.117610    1.082769    3.685653    2.494555

            H           H     
            ------      ------
 H     :    0.000000
 H     :    1.848774    0.000000


  Max    interatomic separation is    4.4719 Angstrom (    8.4506 Bohr)
  between atoms    8 and    2, "H     " and "O     ".

  Min HX interatomic separation is    1.0828 Angstrom (    2.0461 Bohr)

  Min YX interatomic separation is    1.2048 Angstrom (    2.2768 Bohr)


  Bond distances (Angstrom):
  --------------------------

                  atom 1     atom 2       distance
                  ------     ------       --------
  bond distance:  O          C            1.204809
  bond distance:  C          C            1.467753
  bond distance:  C          C            1.329627
  bond distance:  H          C            1.111300
  bond distance:  H          C            1.084385
  bond distance:  H          C            1.085984
  bond distance:  H          C            1.082769


  Bond angles (degrees):
  ----------------------

                  atom 1     atom 2     atom 3         angle
                  ------     ------     ------         -----
  bond angle:     O          C          C            124.580
  bond angle:     O          C          H            120.925
  bond angle:     C          C          H            114.495
  bond angle:     C          C          C            120.302
  bond angle:     C          C          H            117.093
  bond angle:     C          C          H            122.606
  bond angle:     C          C          H            120.613
  bond angle:     C          C          H            122.427
  bond angle:     H          C          H            116.960




 Principal moments of inertia (u*A**2) and principal axes
 --------------------------------------------------------

   IA      10.510083          0.000000    0.000000    1.000000
   IB     107.453101          0.000000    1.000000   -0.000000
   IC     117.963184          1.000000    0.000000    0.000000


 Rotational constants
 --------------------

@    The molecule is planar.

               A                   B                   C

          48085.1566           4703.2519           4284.2096 MHz
            1.603948            0.156884            0.142906 cm-1


@  Nuclear repulsion energy :  103.490925962734 Hartree


  Symmetry Orbitals
  -----------------

  Number of orbitals in each symmetry:          92   36


  Symmetry  A' ( 1)

    1     C        1s         1
    2     C        1s         2
    3     C        1s         3
    4     C        1s         4
    5     C        2py        6
    6     C        2pz        7
    7     C        2py        9
    8     C        2pz       10
    9     C        2py       12
   10     C        2pz       13
   11     C        3d1-      15
   12     C        3d0       16
   13     C        3d2+      18
   14     C        3d1-      20
   15     C        3d0       21
   16     C        3d2+      23
   17     O        1s        24
   18     O        1s        25
   19     O        1s        26
   20     O        1s        27
   21     O        2py       29
   22     O        2pz       30
   23     O        2py       32
   24     O        2pz       33
   25     O        2py       35
   26     O        2pz       36
   27     O        3d1-      38
   28     O        3d0       39
   29     O        3d2+      41
   30     O        3d1-      43
   31     O        3d0       44
   32     O        3d2+      46
   33     C        1s        47
   34     C        1s        48
   35     C        1s        49
   36     C        1s        50
   37     C        2py       52
   38     C        2pz       53
   39     C        2py       55
   40     C        2pz       56
   41     C        2py       58
   42     C        2pz       59
   43     C        3d1-      61
   44     C        3d0       62
   45     C        3d2+      64
   46     C        3d1-      66
   47     C        3d0       67
   48     C        3d2+      69
   49     C        1s        70
   50     C        1s        71
   51     C        1s        72
   52     C        1s        73
   53     C        2py       75
   54     C        2pz       76
   55     C        2py       78
   56     C        2pz       79
   57     C        2py       81
   58     C        2pz       82
   59     C        3d1-      84
   60     C        3d0       85
   61     C        3d2+      87
   62     C        3d1-      89
   63     C        3d0       90
   64     C        3d2+      92
   65     H        1s        93
   66     H        1s        94
   67     H        1s        95
   68     H        2py       97
   69     H        2pz       98
   70     H        2py      100
   71     H        2pz      101
   72     H        1s       102
   73     H        1s       103
   74     H        1s       104
   75     H        2py      106
   76     H        2pz      107
   77     H        2py      109
   78     H        2pz      110
   79     H        1s       111
   80     H        1s       112
   81     H        1s       113
   82     H        2py      115
   83     H        2pz      116
   84     H        2py      118
   85     H        2pz      119
   86     H        1s       120
   87     H        1s       121
   88     H        1s       122
   89     H        2py      124
   90     H        2pz      125
   91     H        2py      127
   92     H        2pz      128


  Symmetry  A" ( 2)

   93     C        2px        5
   94     C        2px        8
   95     C        2px       11
   96     C        3d2-      14
   97     C        3d1+      17
   98     C        3d2-      19
   99     C        3d1+      22
  100     O        2px       28
  101     O        2px       31
  102     O        2px       34
  103     O        3d2-      37
  104     O        3d1+      40
  105     O        3d2-      42
  106     O        3d1+      45
  107     C        2px       51
  108     C        2px       54
  109     C        2px       57
  110     C        3d2-      60
  111     C        3d1+      63
  112     C        3d2-      65
  113     C        3d1+      68
  114     C        2px       74
  115     C        2px       77
  116     C        2px       80
  117     C        3d2-      83
  118     C        3d1+      86
  119     C        3d2-      88
  120     C        3d1+      91
  121     H        2px       96
  122     H        2px       99
  123     H        2px      105
  124     H        2px      108
  125     H        2px      114
  126     H        2px      117
  127     H        2px      123
  128     H        2px      126

  Symmetries of electric field:  A" (2)  A' (1)  A' (1)

  Symmetries of magnetic field:  A' (1)  A" (2)  A" (2)


                     .---------------------------------------.
                     | Starting in Integral Section (HERMIT) |
                     `---------------------------------------'



 ***************************************************************************************
 ****************** Output from **INTEGRALS input processing (HERMIT) ******************
 ***************************************************************************************


 - Using defaults, no **INTEGRALS input found

 Default print level:        1

 * Nuclear model: Point charge

 Calculation of one-electron Hamiltonian integrals.

 Center of mass  (bohr):      0.000000000000      0.000000000000      0.000000000000
 Operator center (bohr):      0.000000000000      0.000000000000      0.000000000000
 Gauge origin    (bohr):      0.000000000000      0.000000000000      0.000000000000
 Dipole origin   (bohr):      0.000000000000      0.000000000000      0.000000000000


     ************************************************************************
     ************************** Output from HERINT **************************
     ************************************************************************



                      Nuclear contribution to dipole moments
                      --------------------------------------

                 au               Debye          C m (/(10**-30)

      y      0.72160759         1.83414344         6.11804397
      z     -4.45211392       -11.31614412       -37.74659373


  Total CPU  time used in HERMIT:   0.15 seconds
  Total wall time used in HERMIT:   0.18 seconds


                        .----------------------------------.
                        | End of Integral Section (HERMIT) |
                        `----------------------------------'



                   .--------------------------------------------.
                   | Starting in Wave Function Section (SIRIUS) |
                   `--------------------------------------------'


 *** Output from Huckel module :

     Using EWMO model:          T
     Using EHT  model:          F
     Number of Huckel orbitals each symmetry:   20    4

 EWMO - Energy Weighted Maximum Overlap - is a Huckel type method,
        which normally is better than Extended Huckel Theory.
 Reference: Linderberg and Ohrn, Propagators in Quantum Chemistry (Wiley, 1973)

 Huckel EWMO eigenvalues for symmetry :  1
          -20.684879     -11.358229     -11.351976     -11.346137      -1.737102
           -1.485594      -1.049455      -1.031602      -0.729409      -0.671088
           -0.537405      -0.513836      -0.434311      -0.157022      -0.129895
           -0.127040      -0.121820      -0.114437      -0.092162      -0.083199

 Huckel EWMO eigenvalues for symmetry :  2
           -0.748837      -0.552296      -0.316818      -0.218949

 **********************************************************************
 *SIRIUS* a direct, restricted step, second order MCSCF program       *
 **********************************************************************

 
     Date and time (Linux)  : Mon Feb 20 22:10:15 2017
     Host name              : c91n05                                  

 Title lines from ".mol" input file:
      8                                                                      
      acrolein_sym                                                           

 Print level on unit LUPRI =   2 is   0
 Print level on unit LUW4  =   2 is   5

@    MP2, closed-shell Moeller-Plesset second-order calculation.

@    This is a combination run starting with
@              a restricted, closed shell Hartree-Fock calculation

 Fock matrices are calculated directly and in parallel without use of integrals on disk.

 Initial molecular orbitals are obtained according to
 ".MOSTART EWMO  " input option

     Wave function specification
     ============================
@    Wave function type        --- MP2 ---
@    Number of closed shell electrons          30
@    Number of electrons in active shells       0
@    Total charge of the molecule               0

@    Spin multiplicity and 2 M_S                1         0
@    Total number of symmetries                 2 (point group: Cs )
@    Reference state symmetry                   1 (irrep name : A' )

     Orbital specifications
     ======================
@    Abelian symmetry species          All |    1    2
@                                          |  A'   A" 
                                       --- |  ---  ---
@    Total number of orbitals          128 |   92   36
@    Number of basis functions         128 |   92   36

      ** Automatic occupation of RHF orbitals **

      -- Initial occupation of symmetries is determined from extended Huckel guess.           
      -- Initial occupation of symmetries is :
@    Occupied SCF orbitals              15 |   13    2

     Maximum number of Fock   iterations      0
     Maximum number of DIIS   iterations     60
     Maximum number of QC-SCF iterations     60
     Threshold for SCF convergence     1.00D-06


 ***********************************************
 ***** DIIS acceleration of SCF iterations *****
 ***********************************************

 C1-DIIS algorithm; max error vectors =    8

 Automatic occupation of symmetries with  30 electrons.

 Iter     Total energy    Error norm  Delta(E)    SCF occupation
 -----------------------------------------------------------------------------
   1  Screening settings (-IFTHRS, JTDIIS, DIFDEN, times)   -7    1    T  1.77D-01  1.78D-01
@  1  -189.942498414       3.62D+00  -1.90D+02    13   2
      Virial theorem: -V/T =      2.004674
@      MULPOP C       1.21; O      -1.08; C      -0.17; C       0.55; H      -0.17; H      -0.17; H      -0.08; H      -0.09; 
   1  Level shift: doubly occupied orbital energies shifted by -2.00D-01
 -----------------------------------------------------------------------------
   2  Screening settings (-IFTHRS, JTDIIS, DIFDEN, times)   -7    2    T  1.62D-01  1.62D-01
@  2  -190.628179229       1.75D+00  -6.86D-01    13   2
      Virial theorem: -V/T =      2.003847
@      MULPOP C       0.24; O      -0.14; C       0.52; C       0.43; H      -0.20; H      -0.35; H      -0.25; H      -0.24; 
   2  Level shift: doubly occupied orbital energies shifted by -1.00D-01
 -----------------------------------------------------------------------------
   3  Screening settings (-IFTHRS, JTDIIS, DIFDEN, times)   -7    3    T  1.61D-01  1.61D-01
@  3  -190.780770640       3.76D-01  -1.53D-01    13   2
      Virial theorem: -V/T =      1.998810
@      MULPOP C       0.71; O      -0.68; C       0.59; C       0.46; H      -0.17; H      -0.38; H      -0.27; H      -0.26; 
   3  Level shift: doubly occupied orbital energies shifted by -2.50D-02
 -----------------------------------------------------------------------------
   4  Screening settings (-IFTHRS, JTDIIS, DIFDEN, times)   -9    4    F  1.62D-01  1.63D-01
@  4  -190.789326028       9.45D-02  -8.56D-03    13   2
      Virial theorem: -V/T =      2.001932
@      MULPOP C       0.67; O      -0.67; C       0.56; C       0.50; H      -0.15; H      -0.39; H      -0.27; H      -0.26; 
   4  Level shift: doubly occupied orbital energies shifted by -1.25D-02
 -----------------------------------------------------------------------------
   5  Screening settings (-IFTHRS, JTDIIS, DIFDEN, times)  -12    5    F  1.63D-01  1.64D-01
@  5  -190.790212647       2.09D-02  -8.87D-04    13   2
      Virial theorem: -V/T =      2.001106
@      MULPOP C       0.66; O      -0.68; C       0.56; C       0.49; H      -0.14; H      -0.38; H      -0.26; H      -0.25; 
 -----------------------------------------------------------------------------
   6  Screening settings (-IFTHRS, JTDIIS, DIFDEN, times)  -12    6    T  1.63D-01  1.63D-01
@  6  -190.790280385       6.30D-03  -6.77D-05    13   2
      Virial theorem: -V/T =      2.001129
@      MULPOP C       0.66; O      -0.68; C       0.55; C       0.49; H      -0.13; H      -0.37; H      -0.26; H      -0.25; 
 -----------------------------------------------------------------------------
   7  Screening settings (-IFTHRS, JTDIIS, DIFDEN, times)  -12    7    T  1.63D-01  1.63D-01
@  7  -190.790287408       2.49D-03  -7.02D-06    13   2
      Virial theorem: -V/T =      2.001129
@      MULPOP C       0.65; O      -0.68; C       0.55; C       0.49; H      -0.13; H      -0.37; H      -0.26; H      -0.25; 
 -----------------------------------------------------------------------------
   8  Screening settings (-IFTHRS, JTDIIS, DIFDEN, times)  -12    8    T  1.64D-01  1.63D-01
@  8  -190.790288402       8.59D-04  -9.94D-07    13   2
      Virial theorem: -V/T =      2.001132
@      MULPOP C       0.65; O      -0.68; C       0.55; C       0.49; H      -0.13; H      -0.37; H      -0.26; H      -0.25; 
 -----------------------------------------------------------------------------
   9  Screening settings (-IFTHRS, JTDIIS, DIFDEN, times)  -12    9    T  1.64D-01  1.64D-01
@  9  -190.790288533       2.69D-04  -1.31D-07    13   2
      Virial theorem: -V/T =      2.001133
@      MULPOP C       0.65; O      -0.68; C       0.55; C       0.49; H      -0.13; H      -0.37; H      -0.26; H      -0.25; 
 -----------------------------------------------------------------------------
  10  Screening settings (-IFTHRS, JTDIIS, DIFDEN, times)  -12   10    T  1.63D-01  1.64D-01
@ 10  -190.790288546       8.00D-05  -1.26D-08    13   2
      Virial theorem: -V/T =      2.001133
@      MULPOP C       0.65; O      -0.68; C       0.55; C       0.49; H      -0.13; H      -0.37; H      -0.26; H      -0.25; 
 -----------------------------------------------------------------------------
  11  Screening settings (-IFTHRS, JTDIIS, DIFDEN, times)  -12   11    T  1.64D-01  1.63D-01
@ 11  -190.790288547       3.82D-05  -1.36D-09    13   2
      Virial theorem: -V/T =      2.001133
@      MULPOP C       0.65; O      -0.68; C       0.55; C       0.49; H      -0.13; H      -0.37; H      -0.26; H      -0.25; 
 -----------------------------------------------------------------------------
  12  Screening settings (-IFTHRS, JTDIIS, DIFDEN, times)  -12   12    T  1.63D-01  1.62D-01
@ 12  -190.790288547       1.37D-05  -1.60D-10    13   2
      Virial theorem: -V/T =      2.001133
@      MULPOP C       0.65; O      -0.68; C       0.55; C       0.49; H      -0.13; H      -0.37; H      -0.26; H      -0.25; 
 -----------------------------------------------------------------------------
  13  Screening settings (-IFTHRS, JTDIIS, DIFDEN, times)  -12   13    T  1.63D-01  1.63D-01
@ 13  -190.790288547       5.77D-06  -3.34D-11    13   2
      Virial theorem: -V/T =      2.001133
@      MULPOP C       0.65; O      -0.68; C       0.55; C       0.49; H      -0.13; H      -0.37; H      -0.26; H      -0.25; 
 -----------------------------------------------------------------------------
  14  Screening settings (-IFTHRS, JTDIIS, DIFDEN, times)  -12   14    T  1.65D-01  1.64D-01
@ 14  -190.790288547       2.06D-06  -4.15D-12    13   2
      Virial theorem: -V/T =      2.001133
@      MULPOP C       0.65; O      -0.68; C       0.55; C       0.49; H      -0.13; H      -0.37; H      -0.26; H      -0.25; 
 -----------------------------------------------------------------------------
  15  Screening settings (-IFTHRS, JTDIIS, DIFDEN, times)  -12   15    T  1.65D-01  1.64D-01
@ 15  -190.790288547       6.40D-07  -3.24D-12    13   2

@ *** DIIS converged in  15 iterations !
@     Converged SCF energy, gradient:   -190.790288547071    6.40D-07
    - total time used in SIRFCK :              0.00 seconds

 --- Writing SIRIFC interface file

 CPU and wall time for SCF :       2.564       2.572


 ----- Output from SIRIUS MP2 module -----

 Reference: H.J.Aa.Jensen, P.Jørgensen, H.Ågren, and J.Olsen,
            J. Chem. Phys. 88, 3834 (1988); 89, 5354 (1988)

 Checking that the closed shell orbitals are canonical Hartree-Fock orbitals

    Number of electrons  :   30
    Closed shell orbitals:   13    2

 Generating Fock matrix

 Hartree-Fock electronic energy:        -294.281214509805
 Hartree-Fock total      energy:        -190.790288547071

 Hartree-Fock orbital energies, symmetry 1 ( A' ),   13 occupied SCF orbitals

       -20.56947973   -11.34408637   -11.27820244   -11.26244960    -1.40278925
        -1.09494319    -0.88894623    -0.78915636    -0.67634550    -0.66985702
        -0.60819250    -0.55988144    -0.43087620     0.03084940     0.04266122
         0.05088306     0.06789594     0.10713286     0.12855635     0.15277945
         0.15526248     0.16017199     0.16998693     0.18636686     0.20976042
         0.23807131     0.28449776     0.28941102     0.31069627     0.34358870
         0.34547483     0.36916445     0.39830226     0.42838013     0.43501663
         0.47694910     0.50566439     0.54095747     0.54961518     0.56178015
         0.59290701     0.59380609     0.62424190     0.64704215     0.67778951
         0.68996461     0.70537749     0.78144035     0.80054119     0.83110851
         0.86620487     0.86863864     0.96797734     1.01215590     1.05242450
         1.16029695     1.22332804     1.29638342     1.34260126     1.36568797
         1.45242515     1.48118615     1.56210453     1.58049114     1.63600812
         1.64415325     1.70937000     1.87090316     1.90593423     1.91810789
         1.96079517     1.97897298     2.06865140     2.09880650     2.18912040
         2.21412709     2.26141078     2.33830873     2.50364949     2.58426491
         2.64394328     2.68933398     2.71861577     2.79418901     2.90729652
         3.06393260     3.23879445     3.39253162     3.62634672     3.76854853
         3.98501965     4.12225702

 Hartree-Fock orbital energies, symmetry 2 ( A" ),    2 occupied SCF orbitals

        -0.54764759    -0.40305545     0.06736985     0.09572084     0.12960532
         0.14660846     0.23268706     0.29587172     0.35547097     0.39518101
         0.44249012     0.50264885     0.59944326     0.60994063     0.65872684
         0.73862229     0.81125335     0.84223198     0.89502563     0.95951123
         1.09987574     1.25121283     1.29663667     1.45378911     1.55916666
         1.69442080     1.76289194     1.85102533     1.89151433     2.04800124
         2.13442858     2.18839167     2.38779434     2.45051786     3.73176655
         3.76986557

    E(LUMO) :     0.03084940   (in symmetry 1)
  - E(HOMO) :    -0.40305545   (in symmetry 2)
  --------------------------
    gap     :     0.43390485

---> (Re)generating AOTWOINT


     ************************************************************************
     ************************** Output from HERINT **************************
     ************************************************************************


 Threshold for neglecting two-electron integrals:  1.00D-12
 HERMIT - Number of two-electron integrals written:    17554377 ( 51.5% )
 HERMIT - Megabytes written:                            201.010

  Time used in TWOINT     is       3.06 seconds

 2-el. integral transformation: Total CPU and WALL times (sec)       8.250       9.113

 MP2 move   0.411066 electrons to unoccupied HF orbitals


@   Hartree-Fock total energy   :          -190.7902885471
@   + MP2 contribution          :            -0.6090806691
@   = MP2 second order energy   :          -191.3993692162

 Natural orbital occupation numbers, symmetry 1 (irrep A' )
 Sum =    25.97478615; RHF =    26.00000000; Difference =    -0.02521385

         1.99990006     1.99980480     1.99980035     1.99979762     1.98607170
         1.98238566     1.97463822     1.97300501     1.96793599     1.96600415
         1.96340898     1.96075303     1.95609052     0.03001283     0.02769964
         0.02046488     0.01761768     0.01682440     0.01561669     0.01424074
         0.01193253     0.01159645     0.00995715     0.00942081     0.00832694
         0.00692562     0.00619473     0.00560369     0.00404586     0.00337357
         0.00270915     0.00240569     0.00224991     0.00180192     0.00168990
         0.00141560     0.00133452     0.00124171     0.00114748     0.00094906
         0.00090251     0.00077383     0.00063143     0.00060838     0.00056681
         0.00050782     0.00045513     0.00040852     0.00036171     0.00032055
         0.00030775     0.00028921     0.00026691     0.00023507     0.00019713
         0.00017751     0.00016928     0.00015215     0.00013229     0.00012940
         0.00012216     0.00010619     0.00009811     0.00008829     0.00007561
         0.00005870     0.00005022     0.00004067     0.00003826     0.00003435
         0.00002518     0.00002306     0.00002087     0.00001526     0.00001262
         0.00001220     0.00001068     0.00000729     0.00000676     0.00000552
         0.00000440     0.00000184     0.00000133     0.00000102     0.00000057
         0.00000046     0.00000013     0.00000005    -0.00000015    -0.00000040
        -0.00000559    -0.00005813

 Natural orbital occupation numbers, symmetry 2 (irrep A" )
 Sum =     4.02521385; RHF =     4.00000000; Difference =     0.02521385

         1.94020738     1.92610309     0.06316550     0.03849724     0.01039735
         0.00830595     0.00772441     0.00613502     0.00480026     0.00435097
         0.00347849     0.00277862     0.00220322     0.00107464     0.00084488
         0.00072927     0.00066710     0.00059281     0.00051554     0.00045435
         0.00043233     0.00039890     0.00030056     0.00024404     0.00022928
         0.00015569     0.00011440     0.00008326     0.00007773     0.00005013
         0.00003681     0.00002873     0.00002084     0.00001263     0.00000291
        -0.00000048

 Time used for MP2 natural orbitals :       8.652 CPU seconds,       9.546 wall seconds.

 CPU and wall time for MP2 :       8.652       9.546


                       .-----------------------------------.
                       | --- Final results from SIRIUS --- |
                       `-----------------------------------'


@    Spin multiplicity:           1
@    Spatial symmetry:            1 ( irrep  A'  in Cs  )
@    Total charge of molecule:    0

@    Final HF energy:            -190.790288547071                 
@    Nuclear repulsion:           103.490925962734
@    Electronic energy:          -294.281214509805

@    Final gradient norm:           0.000000639829

 
     Date and time (Linux)  : Mon Feb 20 22:10:27 2017
     Host name              : c91n05                                  

File label for MO orbitals:  20Feb17   MP2SAVE 

 (Only coefficients > 0.0100 are printed.)

 Molecular orbitals for symmetry species 1  (A' )
 ------------------------------------------------

    Orbital         4        5        6        7        8        9       10
   1 C   :1s    -0.8894   0.0137   0.0014   0.0004  -0.0035   0.0013  -0.0043
   2 C   :1s    -0.0092  -0.4349   0.0867   0.4434  -0.3421   0.0621  -0.3676
   3 C   :1s     0.0254   0.0877  -0.1786  -0.0417   0.0951  -0.0114  -0.0201
   4 C   :1s     0.0118   0.0734   0.1454  -0.0014   0.1084   0.0682   0.0441
   5 C   :2py    0.0025   0.0192  -0.0092   0.0855  -0.4064   0.2361   0.3110
   6 C   :2pz   -0.0026  -0.0718  -0.1649  -0.1382  -0.0268   0.0828   0.0562
   7 C   :2py   -0.0019  -0.0025   0.0777  -0.0630   0.2281  -0.1383  -0.1092
   8 C   :2pz   -0.0066   0.1459   0.1365  -0.0089   0.0187  -0.0756   0.0469
   9 C   :2py   -0.0010  -0.0209  -0.0356   0.0145  -0.0109  -0.0494  -0.0192
  10 C   :2pz   -0.0015   0.0008  -0.0183   0.0030  -0.0200  -0.0093  -0.0373
  11 C   :3d1-   0.0002   0.0135   0.0169   0.0076   0.0043   0.0123   0.0236
  12 C   :3d0   -0.0009  -0.0233  -0.0046  -0.0071   0.0027   0.0056   0.0046
  13 C   :3d2+   0.0005   0.0039  -0.0034  -0.0110   0.0002   0.0051   0.0068
  14 C   :3d1-   0.0003  -0.0466  -0.0446   0.0090  -0.0025   0.0123  -0.0141
  15 C   :3d0    0.0024  -0.0038   0.0334   0.0254  -0.0023   0.0064  -0.0094
  16 C   :3d2+  -0.0010  -0.0093   0.0143   0.0154  -0.0105   0.0032  -0.0093
  17 O   :1s     0.0103   0.0046   0.0002  -0.0038   0.0030  -0.0009   0.0048
  18 O   :1s    -0.0037  -0.7678  -0.3657  -0.3067   0.1627  -0.0481   0.1128
  19 O   :1s     0.0012   0.0079  -0.0114  -0.0245   0.0195   0.0015   0.0429
  20 O   :1s    -0.0006  -0.0858  -0.0830  -0.0416   0.0155  -0.0048   0.0287
  21 O   :2py    0.0001   0.0078  -0.0242   0.0016  -0.2376   0.3324   0.3329
  22 O   :2pz   -0.0012   0.0131  -0.0438  -0.1737   0.0120   0.1184   0.4369
  23 O   :2py    0.0007   0.0211   0.0010  -0.0100   0.0070   0.0002   0.0184
  24 O   :2pz   -0.0021  -0.0289  -0.0180   0.0078   0.0004   0.0031  -0.0337
  25 O   :2py   -0.0002   0.0078  -0.0030  -0.0135  -0.0011   0.0299   0.0414
  26 O   :2pz   -0.0003   0.0012   0.0091  -0.0059  -0.0032   0.0097   0.0273
  28 O   :3d0   -0.0002  -0.0080  -0.0010   0.0035   0.0035  -0.0054  -0.0156
  30 O   :3d1-  -0.0008  -0.0057  -0.0037  -0.0044   0.0111  -0.0078  -0.0096
  33 C   :1s     0.3880   0.0066  -0.0161  -0.0035  -0.0005  -0.0002  -0.0018
  34 C   :1s     0.0056  -0.2249   0.5112   0.2814   0.3730   0.0538   0.1536
  35 C   :1s    -0.0181   0.1175  -0.2194   0.0801  -0.0327   0.0106   0.0260
  36 C   :1s    -0.0103   0.0072  -0.0852  -0.2528  -0.2482  -0.0694  -0.2217
  37 C   :2py    0.0021  -0.0122  -0.0026  -0.0419  -0.2092  -0.1878  -0.2374
  38 C   :2pz    0.0011  -0.0461  -0.0834   0.1591   0.0328  -0.0911  -0.1853
  39 C   :2py   -0.0037   0.0107   0.0115   0.0812   0.0848   0.0728   0.1075
  40 C   :2pz   -0.0048   0.1399   0.1978  -0.2462  -0.0009  -0.0368   0.0225
  41 C   :2py   -0.0020  -0.0063  -0.0065  -0.0293  -0.0148  -0.0350  -0.0104
  42 C   :2pz   -0.0025  -0.0322  -0.0487   0.0699   0.0110  -0.0634   0.0406
  43 C   :3d1-   0.0002  -0.0048  -0.0075   0.0145  -0.0035   0.0091  -0.0234
  44 C   :3d0    0.0004  -0.0075   0.0077  -0.0061   0.0009   0.0067  -0.0234
  45 C   :3d2+  -0.0005   0.0024  -0.0073  -0.0087  -0.0005   0.0055  -0.0109
  46 C   :3d1-  -0.0020   0.0311   0.0660  -0.0609   0.0214  -0.0157   0.0403
  47 C   :3d0   -0.0014  -0.0340   0.0527   0.0346   0.0694   0.0002   0.0208
  48 C   :3d2+   0.0006  -0.0098   0.0236   0.0249   0.0565   0.0091   0.0196
  49 C   :1s    -0.2559   0.0038  -0.0136   0.0064  -0.0004   0.0002  -0.0019
  50 C   :1s    -0.0020  -0.1246   0.5675  -0.4596  -0.1678  -0.0503  -0.0331
  51 C   :1s     0.0073   0.1521  -0.0715  -0.0427   0.0299  -0.0137   0.0065
  52 C   :1s     0.0026  -0.0439  -0.0711   0.2831   0.1408  -0.0106   0.1489
  53 C   :2py    0.0003   0.0005  -0.0162  -0.0099  -0.1794  -0.5119   0.2152
  54 C   :2pz   -0.0013  -0.0161   0.0484   0.2298   0.0893  -0.2216   0.2645
  55 C   :2py    0.0000  -0.0438  -0.0095   0.0839   0.1253   0.2364  -0.0576
  56 C   :2pz   -0.0010   0.0543   0.0880  -0.2586  -0.0179   0.0532  -0.1277
  57 C   :2py    0.0013   0.0179   0.0089  -0.0400  -0.0169   0.0677  -0.0551
  58 C   :2pz    0.0004  -0.0016  -0.0098   0.0487   0.0308   0.0309  -0.0003
  59 C   :3d1-   0.0001   0.0007  -0.0092  -0.0093  -0.0091   0.0084  -0.0206
  60 C   :3d0   -0.0003  -0.0050   0.0079  -0.0009   0.0043   0.0138  -0.0156
  62 C   :3d1-  -0.0011  -0.0160  -0.0317   0.0745   0.0379  -0.0281   0.0531
  63 C   :3d0   -0.0007  -0.0052   0.0298  -0.0336  -0.0008  -0.0593   0.0302
  64 C   :3d2+  -0.0008  -0.0056   0.0269  -0.0258  -0.0076  -0.0335   0.0161
  65 H   :1s     0.0038  -0.1771   0.0549   0.3008  -0.4691   0.1650   0.0485
  66 H   :1s    -0.0075   0.0542  -0.0213  -0.0354   0.0453   0.0374   0.0221
  67 H   :1s    -0.0001   0.0056   0.0173  -0.0135  -0.0080   0.0375   0.0116
  68 H   :2py   -0.0005   0.0129  -0.0032  -0.0149   0.0219  -0.0090   0.0002
  70 H   :2py    0.0021  -0.0007   0.0029  -0.0150   0.0396  -0.0403  -0.0237
  71 H   :2pz    0.0004   0.0151   0.0172   0.0022  -0.0152   0.0063   0.0084
  72 H   :1s    -0.0021  -0.1073   0.2388   0.1972   0.3432   0.1551   0.3312
  73 H   :1s     0.0017  -0.0118   0.0211   0.0553  -0.0061  -0.0764   0.0459
  74 H   :1s    -0.0003  -0.0064   0.0006  -0.0142   0.0016  -0.0183   0.0004
  75 H   :2py   -0.0003  -0.0075   0.0144   0.0098   0.0166   0.0078   0.0098
  77 H   :2py    0.0003  -0.0146   0.0296   0.0300   0.0166  -0.0096   0.0389
  78 H   :2pz   -0.0004   0.0088   0.0101  -0.0213  -0.0037   0.0052   0.0064
  79 H   :1s     0.0009  -0.0581   0.2503  -0.2243  -0.2410  -0.4987   0.2113
  80 H   :1s    -0.0052   0.0270  -0.0375  -0.0096   0.0420  -0.0811   0.0554
  81 H   :1s    -0.0013  -0.0122  -0.0032   0.0206   0.0026  -0.0628   0.0329
  82 H   :2py   -0.0003   0.0049  -0.0171   0.0156   0.0110   0.0146  -0.0025
  84 H   :2py    0.0013  -0.0007  -0.0097   0.0216   0.0064   0.0630  -0.0303
  85 H   :2pz    0.0004   0.0031   0.0103  -0.0276  -0.0176   0.0022  -0.0148
  86 H   :1s     0.0021  -0.0456   0.2286  -0.3944  -0.0702   0.4129  -0.3695
  87 H   :1s    -0.0017   0.0475  -0.0509  -0.0234   0.0033   0.0432  -0.0884
  88 H   :1s     0.0001   0.0045  -0.0023  -0.0015   0.0032   0.0485  -0.0346
  89 H   :2py    0.0002  -0.0010   0.0079  -0.0117  -0.0050   0.0009  -0.0030
  90 H   :2pz    0.0002  -0.0034   0.0149  -0.0159  -0.0029   0.0115  -0.0088
  91 H   :2py   -0.0003   0.0040  -0.0040  -0.0025   0.0083   0.0389  -0.0275
  92 H   :2pz   -0.0005   0.0036   0.0108  -0.0442  -0.0086   0.0254  -0.0424

    Orbital        11       12       13       14       15       16       17
   1 C   :1s     0.0011   0.0046  -0.0028  -0.0587  -0.0992   0.1029   0.0629
   2 C   :1s     0.0133   0.2191   0.0576  -0.6027  -0.8834   0.8419   0.5053
   3 C   :1s    -0.0414   0.1965  -0.0055   0.4241  -0.0483  -0.4182  -0.3411
   4 C   :1s    -0.1029   0.1259  -0.0959   0.0977  -0.3844   0.0072   0.0943
   5 C   :2py    0.1080  -0.3254  -0.1465   0.6921  -0.0626   0.0091   0.3977
   6 C   :2pz    0.1317   0.4313  -0.4912  -0.0931  -0.8614  -0.6020  -0.8330
   7 C   :2py    0.0196  -0.0046  -0.0137  -0.6429   0.4597  -0.0561  -0.4070
   8 C   :2pz   -0.0728  -0.2924   0.0872  -0.1275   0.3938   0.3729   0.3885
   9 C   :2py    0.0297  -0.0432  -0.0465  -0.1065   0.1332   0.0113  -0.0653
  10 C   :2pz    0.0134  -0.0352  -0.0215  -0.1183   0.0909  -0.0261  -0.0870
  11 C   :3d1-  -0.0161   0.0090   0.0538   0.0556  -0.0694  -0.0354   0.0432
  12 C   :3d0   -0.0345   0.0511   0.0106   0.0867  -0.0217   0.0374   0.0161
  13 C   :3d2+  -0.0186   0.0150   0.0116   0.0414  -0.0245   0.0410   0.0030
  14 C   :3d1-  -0.0135   0.0873  -0.0094   0.0875  -0.1178  -0.0162  -0.0288
  15 C   :3d0    0.0095  -0.0200   0.0492  -0.0959   0.0926  -0.0320  -0.0295
  16 C   :3d2+   0.0145  -0.0157   0.0213  -0.0652   0.0606  -0.0153  -0.0321
  17 O   :1s    -0.0016  -0.0056   0.0023   0.0185   0.0193   0.0065   0.0173
  18 O   :1s    -0.0617  -0.0497  -0.0381   0.2221   0.2948   0.0383   0.1460
  19 O   :1s    -0.0027  -0.0906   0.0574   0.0584   0.1200  -0.0567   0.0144
  20 O   :1s    -0.0140  -0.0911   0.0769   0.1356   0.2054  -0.0179   0.0466
  21 O   :2py   -0.1966   0.6473   0.2541  -0.5583   0.9709  -0.0820  -0.2358
  22 O   :2pz   -0.1529  -0.3982   0.4803  -0.8858  -0.7043   0.0169  -0.3808
  23 O   :2py   -0.0047  -0.0274   0.0427   0.5921  -0.7270   0.1216   0.3948
  24 O   :2pz    0.0033   0.1107  -0.0495   0.5758   0.1887  -0.0156   0.2020
  25 O   :2py   -0.0336   0.0684   0.0731   0.1474  -0.1199   0.0437   0.1189
  26 O   :2pz   -0.0057   0.0194   0.0276   0.0604  -0.0524   0.0175   0.0408
  27 O   :3d1-  -0.0005  -0.0170   0.0063  -0.0203   0.0461   0.0207   0.0269
  28 O   :3d0    0.0027   0.0146  -0.0108  -0.0380  -0.0058  -0.0064  -0.0470
  29 O   :3d2+  -0.0005  -0.0044   0.0009  -0.0216   0.0028   0.0180   0.0035
  30 O   :3d1-  -0.0030   0.0043  -0.0083  -0.0326   0.0601  -0.0050  -0.0292
  31 O   :3d0    0.0001  -0.0168   0.0070  -0.0674   0.0143   0.0066  -0.0132
  32 O   :3d2+  -0.0008   0.0046  -0.0020  -0.0247   0.0076   0.0052  -0.0112
  33 C   :1s     0.0025   0.0036  -0.0002   0.0618  -0.0246   0.0124  -0.1210
  34 C   :1s    -0.2405   0.0599   0.0952   0.6159  -0.1923   0.0709  -0.9891
  35 C   :1s    -0.0222  -0.0936   0.0228   0.0796   0.0810   0.1096  -0.1996
  36 C   :1s     0.0764  -0.1348   0.0360  -0.4219   0.4962  -0.1396  -0.6223
  37 C   :2py   -0.5455  -0.0362   0.1097   0.3043   0.0643  -0.0639  -0.7056
  38 C   :2pz    0.2246   0.0977   0.5744   0.2288  -0.1028  -1.1795   0.4795
  39 C   :2py    0.1637  -0.0686  -0.0308   0.2021  -0.0976   0.1409   0.2022
  40 C   :2pz   -0.1455  -0.2500  -0.1518  -0.7137   0.4146   0.4620   0.0576
  41 C   :2py    0.0646  -0.0298   0.0171  -0.0982   0.1527  -0.0048  -0.1326
  42 C   :2pz    0.0381   0.0088   0.0254   0.0453   0.0339   0.0920   0.1277
  43 C   :3d1-   0.0031  -0.0085   0.0231   0.0069   0.0243   0.1033   0.0307
  44 C   :3d0   -0.0218   0.0050   0.0006  -0.0978  -0.0179  -0.0252   0.0290
  45 C   :3d2+  -0.0136   0.0065  -0.0010  -0.0278  -0.0337  -0.0121  -0.0280
  46 C   :3d1-  -0.0265  -0.0471  -0.0479  -0.1528   0.0700   0.1077   0.0632
  47 C   :3d0    0.0988  -0.0037   0.0203  -0.1159   0.1654  -0.0404  -0.1312
  48 C   :3d2+   0.0424   0.0101   0.0097  -0.0467   0.0515  -0.0245  -0.0409
  49 C   :1s     0.0030   0.0002   0.0013  -0.0242  -0.0186  -0.0708   0.1239
  50 C   :1s    -0.1170   0.0209  -0.1612  -0.2546  -0.1340  -0.5626   0.9103
  51 C   :1s    -0.1440  -0.1324  -0.0433  -0.4095   0.1936   0.2002   0.2062
  52 C   :1s    -0.0485   0.0522  -0.0090   0.2656  -0.2153   0.1268   0.5073
  53 C   :2py    0.2590   0.1430   0.1564   0.2389  -0.1185   0.2591  -0.3758
  54 C   :2pz   -0.4294  -0.0125  -0.3281  -0.2949  -0.0561  -0.6334   0.6553
  55 C   :2py   -0.0176   0.0014  -0.0214   0.0108   0.1019  -0.1825  -0.1506
  56 C   :2pz    0.0922  -0.0453   0.0542  -0.2707   0.2352   0.1341   0.0307
  57 C   :2py   -0.0338  -0.0135   0.0130   0.0009  -0.0242  -0.0674  -0.0483
  58 C   :2pz   -0.0290  -0.0092  -0.0049   0.0315  -0.0370   0.0053   0.0879
  59 C   :3d1-   0.0045   0.0002   0.0184   0.0234   0.0095  -0.1031   0.0152
  60 C   :3d0   -0.0246  -0.0026   0.0061   0.0314   0.0069  -0.0267  -0.0851
  61 C   :3d2+  -0.0142  -0.0010   0.0029   0.0273  -0.0072  -0.0525  -0.0475
  62 C   :3d1-  -0.0053   0.0241  -0.0302   0.0057   0.0076   0.0152  -0.0418
  63 C   :3d0    0.0438   0.0229   0.0071  -0.0594   0.0473   0.0360   0.0396
  64 C   :3d2+   0.0235   0.0108   0.0034  -0.0270   0.0172   0.0173  -0.0054
  65 H   :1s     0.1989  -0.3608  -0.1680  -0.2290   0.3497  -0.4796  -0.5203
  66 H   :1s     0.0193   0.0300   0.0855   0.1898  -0.1817   0.0614   0.2255
  67 H   :1s    -0.0147   0.0104   0.0324   0.0866  -0.0726  -0.0229   0.0413
  68 H   :2py   -0.0010   0.0072  -0.0012  -0.0129   0.0070  -0.0045  -0.0120
  69 H   :2pz    0.0006   0.0017  -0.0072   0.0035  -0.0351  -0.0091  -0.0116
  70 H   :2py   -0.0121   0.0080  -0.0240  -0.0965   0.0710   0.0070  -0.0672
  71 H   :2pz    0.0042  -0.0136   0.0324   0.0150  -0.0061  -0.0063   0.0425
  72 H   :1s     0.4534   0.0510  -0.0208   0.0712   0.1010   0.0111   0.0959
  73 H   :1s     0.1025  -0.0853  -0.0231  -0.0156   0.1731   0.0738  -0.1943
  74 H   :1s     0.0496  -0.0243  -0.0061  -0.0633   0.0961  -0.0104  -0.0786
  75 H   :2py    0.0074   0.0043   0.0012  -0.0030  -0.0088  -0.0033   0.0256
  76 H   :2pz    0.0019  -0.0010   0.0077   0.0047  -0.0002  -0.0364   0.0068
  77 H   :2py    0.0599  -0.0234  -0.0125   0.0067   0.0481   0.0311  -0.0141
  78 H   :2pz   -0.0252  -0.0065  -0.0285  -0.0231  -0.0122   0.0180   0.0126
  79 H   :1s     0.2762   0.1394   0.0552  -0.1289   0.0222   0.1941   0.0258
  80 H   :1s     0.0421   0.0072  -0.0496  -0.1368   0.0581   0.0573   0.0813
  81 H   :1s     0.0312   0.0067  -0.0239  -0.0326   0.0325   0.0441   0.0017
  82 H   :2py   -0.0038  -0.0057  -0.0013  -0.0039   0.0083  -0.0053   0.0109
  83 H   :2pz   -0.0046  -0.0013  -0.0067  -0.0058   0.0022  -0.0231   0.0168
  84 H   :2py   -0.0267  -0.0176   0.0116   0.0418  -0.0034  -0.0464  -0.0254
  85 H   :2pz    0.0195  -0.0020   0.0167   0.0164  -0.0142  -0.0184   0.0037
  86 H   :1s     0.1262  -0.0589   0.1606   0.1304   0.0280  -0.1557  -0.2287
  87 H   :1s    -0.0747  -0.0327   0.0371  -0.1229   0.0566  -0.1156   0.0471
  88 H   :1s    -0.0242  -0.0113   0.0207   0.0171  -0.0193  -0.0098   0.0240
  89 H   :2py    0.0090   0.0008   0.0034   0.0101  -0.0000   0.0185  -0.0258
  91 H   :2py   -0.0239  -0.0157  -0.0044  -0.0101   0.0149  -0.0266  -0.0164
  92 H   :2pz    0.0098   0.0006   0.0224  -0.0112   0.0230  -0.0361  -0.0098

    Orbital        18       19       20       21       22       23
   1 C   :1s    -0.0361   0.0189  -0.0153   0.0366   0.0359  -0.0149
   2 C   :1s    -0.3503   0.1492  -0.1019   0.1730   0.2786  -0.0377
   3 C   :1s     0.2221  -0.1388  -0.4773  -0.4159  -0.1384   2.2971
   4 C   :1s    -0.2671   0.2399   0.2975   0.0973  -0.1609  -0.2340
   5 C   :2py   -0.0826  -0.1163  -0.0721   0.4740   1.0080  -0.4562
   6 C   :2pz    0.0469   0.1021  -0.0931   0.0418   0.2949   0.2896
   7 C   :2py   -0.0970   0.2906   0.0671  -0.0638  -0.6753  -0.5229
   8 C   :2pz    0.0650   0.0375   0.3898   0.0641  -0.2867  -1.1015
   9 C   :2py    0.0619  -0.0240  -0.0853  -0.0415  -0.0095  -0.0194
  10 C   :2pz   -0.0005  -0.0301  -0.0855   0.1054   0.0844  -0.0001
  11 C   :3d1-   0.0601   0.0647  -0.0009  -0.0655  -0.1292  -0.1019
  12 C   :3d0    0.0007   0.0972  -0.0362   0.0126  -0.0812   0.0963
  13 C   :3d2+  -0.0007   0.0358  -0.0015  -0.0453   0.0084   0.1022
  14 C   :3d1-   0.0538  -0.0677  -0.1209  -0.0621   0.1430   0.4105
  15 C   :3d0   -0.1651   0.0231  -0.0722   0.1526   0.1249  -0.1428
  16 C   :3d2+  -0.0579  -0.0186  -0.0437   0.0943   0.0527  -0.0979
  17 O   :1s     0.0379  -0.0383  -0.0099   0.4211  -0.1865   0.0147
  18 O   :1s     0.2276  -0.2295  -0.0453   2.1687  -0.9598   0.0454
  19 O   :1s    -0.0898   0.1047   0.0332  -2.1392   0.9155  -0.1134
  20 O   :1s     0.0914  -0.0511  -0.0713  -0.4591   0.1617   0.1764
  21 O   :2py   -0.1255  -0.2227  -0.1015   0.1100   0.5197  -0.1306
  22 O   :2pz   -0.1247   0.0075  -0.1436   0.5500   0.0750   0.0737
  23 O   :2py    0.1795   0.1753   0.1955  -0.1915  -0.7218   0.0877
  24 O   :2pz    0.0638   0.0738   0.1261  -0.7294  -0.0849   0.2530
  25 O   :2py    0.0376   0.0257   0.0619  -0.0835  -0.1308   0.0702
  26 O   :2pz    0.0016   0.0188   0.0586  -0.0698  -0.0620  -0.0350
  27 O   :3d1-  -0.0091  -0.0211   0.0111  -0.0027  -0.0403  -0.0454
  28 O   :3d0   -0.0095  -0.0081   0.0054  -0.0209  -0.0441   0.0642
  29 O   :3d2+  -0.0106  -0.0115   0.0086  -0.0372   0.0067   0.0321
  30 O   :3d1-  -0.0174  -0.0103  -0.0174   0.0014   0.0303  -0.0045
  31 O   :3d0   -0.0146  -0.0180   0.0073   0.0516   0.0070  -0.0674
  32 O   :3d2+  -0.0136  -0.0113  -0.0045  -0.0121   0.0346   0.0366
  33 C   :1s     0.1023  -0.0901   0.0929   0.0250   0.0027  -0.2027
  34 C   :1s     0.7451  -0.6455   0.6151   0.1570   0.1189  -1.0666
  35 C   :1s     0.0772   0.1362   0.1596  -0.1863   0.0381   0.6203
  36 C   :1s     0.0309  -0.0990  -0.1951   0.2068   0.6567  -0.1189
  37 C   :2py   -0.2506   0.9462  -0.5553   0.0633  -0.1673  -0.2893
  38 C   :2pz    0.3152   0.0035  -0.1220   0.1324   0.0243   0.1232
  39 C   :2py    0.3442  -1.0698   0.6953  -0.0934   0.2772   0.5664
  40 C   :2pz   -0.5358   0.4013   0.4445   0.1665  -0.1764  -2.4810
  41 C   :2py   -0.0377  -0.1003  -0.0467   0.0832   0.1666   0.0300
  42 C   :2pz    0.1487  -0.0664  -0.0663  -0.1506  -0.2244   0.1456
  43 C   :3d1-   0.0977   0.0256  -0.0179  -0.0147  -0.1353   0.1276
  44 C   :3d0    0.1091   0.0444   0.0544  -0.0410  -0.0809  -0.2765
  45 C   :3d2+   0.1036  -0.0508  -0.0254  -0.0397   0.0393   0.1110
  46 C   :3d1-  -0.1502   0.2213   0.1769   0.0762  -0.0467  -0.8407
  47 C   :3d0   -0.2020   0.0502  -0.1160   0.2041   0.0902  -0.1066
  48 C   :3d2+  -0.0982   0.0401  -0.0744   0.1000   0.0198  -0.0208
  49 C   :1s    -0.0028  -0.0905  -0.2161  -0.0484  -0.0610  -0.1638
  50 C   :1s    -0.0389  -0.5965  -1.4351  -0.2936  -0.3627  -0.8556
  51 C   :1s    -0.3521   0.8284   0.9583   0.2857  -0.0319  -1.1308
  52 C   :1s     0.2056  -0.0212  -0.0201  -0.2712  -0.5921   0.3439
  53 C   :2py   -0.8252  -0.8954   0.0256  -0.1708  -0.4909  -0.0456
  54 C   :2pz   -0.6071   0.1614   0.8681   0.0373  -0.1609  -0.1815
  55 C   :2py    0.3499   0.7266  -0.2074   0.2862   0.6343   0.2146
  56 C   :2pz    0.0623   0.3564  -0.7433   0.2067   0.0059  -0.4542
  57 C   :2py   -0.0195   0.0880  -0.0009   0.0694   0.1198  -0.0312
  58 C   :2pz    0.0351   0.0240  -0.0766  -0.0111  -0.0809   0.0451
  59 C   :3d1-  -0.0613   0.0180  -0.0037   0.0506   0.0393   0.2265
  60 C   :3d0   -0.1098   0.0545  -0.0312   0.0273   0.0394  -0.1689
  61 C   :3d2+  -0.0231  -0.0400  -0.0588   0.0104   0.0756   0.1376
  62 C   :3d1-  -0.0172   0.0360   0.0228  -0.0028   0.0437   0.0173
  63 C   :3d0   -0.0782   0.0789  -0.0768   0.0331  -0.0685  -0.0730
  64 C   :3d2+  -0.0400   0.0037  -0.0528   0.0196   0.0120  -0.0463
  65 H   :1s     0.2825  -0.1938   0.0661  -0.1722  -0.7613  -0.1071
  66 H   :1s    -0.1146  -0.0425  -0.0832   0.1308   0.5300   0.1308
  67 H   :1s    -0.0149   0.0143   0.0603   0.0002   0.0218   0.0159
  68 H   :2py   -0.0049   0.0089  -0.0051  -0.0126  -0.0007   0.0339
  69 H   :2pz    0.0001   0.0105  -0.0048  -0.0041  -0.0180  -0.0357
  70 H   :2py   -0.0052   0.0371  -0.0205   0.0015  -0.0476  -0.0043
  71 H   :2pz   -0.0336   0.0247   0.0244   0.0282  -0.0976  -0.1142
  72 H   :1s    -0.6786   0.7682  -0.5431   0.0930  -0.2473   0.0248
  73 H   :1s     0.0759  -0.4762   0.2604   0.1658   0.2827   0.0857
  74 H   :1s    -0.0184  -0.0365  -0.0231   0.0420   0.0930  -0.0020
  75 H   :2py    0.0013  -0.0168   0.0037   0.0003  -0.0027  -0.0059
  76 H   :2pz    0.0023   0.0034  -0.0021   0.0076   0.0412  -0.0311
  77 H   :2py   -0.0303  -0.1134   0.0613   0.0391   0.0685   0.0332
  78 H   :2pz   -0.0290   0.0703   0.0536   0.0200   0.0246  -0.1905
  79 H   :1s     0.5913   0.6769   0.6762   0.1552   0.2403  -0.0899
  80 H   :1s    -0.1966  -0.2504  -0.2293  -0.1397  -0.3733  -0.1206
  81 H   :1s     0.0153  -0.0489  -0.0213  -0.0324  -0.0777  -0.0103
  82 H   :2py    0.0102   0.0195  -0.0166   0.0022   0.0125   0.0252
  83 H   :2pz   -0.0119  -0.0017   0.0283   0.0069   0.0027   0.0411
  84 H   :2py    0.0110   0.0458  -0.0279   0.0401   0.0985   0.0268
  85 H   :2pz    0.0102  -0.0321   0.0378  -0.0076  -0.0634   0.0451
  86 H   :1s    -0.6423   0.1153   0.9384   0.1674   0.0217   0.0405
  87 H   :1s     0.1558   0.1721  -0.4817   0.0644   0.1303  -0.0701
  88 H   :1s     0.0191   0.0376  -0.0478   0.0120   0.0018   0.0148
  89 H   :2py    0.0006  -0.0125  -0.0100  -0.0022   0.0141  -0.0229
  90 H   :2pz    0.0240   0.0207   0.0038   0.0074   0.0112   0.0099
  91 H   :2py   -0.0036   0.0296  -0.0114   0.0132   0.0367  -0.0264
  92 H   :2pz    0.0240   0.0974  -0.0664   0.0375   0.0285   0.0359

 Molecular orbitals for symmetry species 2  (A" )
 ------------------------------------------------

    Orbital         1        2        3        4        5        6        7
   1 C   :2px    0.5096   0.1737   0.6521   0.5353  -0.1449   0.3423  -0.6954
   2 C   :2px   -0.0788  -0.0128  -0.1069  -0.0715   0.0869  -0.1652   0.6624
   3 C   :2px    0.0035   0.0028  -0.0092  -0.0062   0.0046   0.0286   0.0088
   4 C   :3d2-  -0.0189  -0.0030  -0.0134   0.0175  -0.0436  -0.0030   0.2408
   5 C   :3d1+   0.0174   0.0411  -0.0226   0.0458  -0.0657   0.2966  -0.0794
   6 C   :3d2-   0.0139   0.0031   0.0039  -0.0017  -0.0212  -0.0251   0.0481
   7 C   :3d1+  -0.0192   0.0073  -0.0044  -0.0163  -0.0353   0.0381   0.0082
   8 O   :2px    0.5554   0.4691  -0.8961  -0.5077   0.2748  -0.0200  -0.6075
   9 O   :2px   -0.0000   0.0019   0.3720   0.2539  -0.2811  -0.1659   0.8176
  10 O   :2px    0.0345   0.0462   0.0391   0.0278  -0.0936  -0.0603   0.1619
  11 O   :3d2-   0.0074   0.0049   0.0067   0.0127  -0.0456   0.1168  -0.0317
  12 O   :3d1+  -0.0186  -0.0108  -0.0178  -0.0300  -0.0039  -0.1624   0.3194
  13 O   :3d2-   0.0086   0.0030   0.0126   0.0086  -0.0380   0.0492   0.0230
  14 O   :3d1+  -0.0219  -0.0122  -0.0290  -0.0307  -0.0001  -0.0314   0.0982
  15 C   :2px    0.3406  -0.4936   0.2958  -0.9638  -0.6269   0.1037  -0.1088
  16 C   :2px   -0.0374   0.0070  -0.0423   0.1822   0.6680  -0.0438   0.0447
  17 C   :2px    0.0026  -0.0245  -0.0094   0.0093   0.0792  -0.0138  -0.0168
  18 C   :3d2-   0.0148  -0.0110   0.0076   0.0184  -0.2048  -0.3641  -0.1795
  19 C   :3d1+   0.0034   0.0230   0.0736  -0.0077   0.2443  -0.2065  -0.0972
  20 C   :3d2-  -0.0048  -0.0121   0.0004  -0.0277  -0.0310  -0.1412  -0.1001
  21 C   :3d1+   0.0077   0.0136   0.0026   0.0163  -0.0046  -0.0773   0.0207
  22 C   :2px    0.2434  -0.5212  -0.5944   0.6980  -0.6954  -0.0009   0.0013
  23 C   :2px   -0.0113   0.0302   0.0971  -0.0676   0.6680  -0.0036   0.0496
  24 C   :2px    0.0091  -0.0235   0.0047  -0.0012   0.0721   0.0082  -0.0037
  25 C   :3d2-  -0.0060   0.0095   0.0049   0.0272   0.1107  -0.3309  -0.1000
  26 C   :3d1+   0.0139  -0.0202  -0.0015  -0.0405  -0.2828  -0.1353  -0.0342
  27 C   :3d2-  -0.0056  -0.0017   0.0034  -0.0027   0.0070  -0.1353  -0.0509
  28 C   :3d1+   0.0012  -0.0079  -0.0158   0.0234  -0.0076  -0.0813   0.0005
  29 H   :2px    0.0094   0.0031   0.0173   0.0200   0.0024  -0.0014   0.0506
  30 H   :2px   -0.0087  -0.0062  -0.0136  -0.0021   0.0096   0.0162   0.0198
  31 H   :2px    0.0077  -0.0113   0.0061  -0.0220   0.0530   0.0587   0.0339
  32 H   :2px   -0.0027  -0.0072  -0.0081   0.0008   0.0399  -0.0065  -0.0212
  33 H   :2px    0.0059  -0.0117  -0.0123   0.0202   0.0429  -0.0606  -0.0187
  34 H   :2px    0.0036  -0.0063   0.0080  -0.0074   0.0548   0.0023  -0.0009
  35 H   :2px    0.0051  -0.0123  -0.0131   0.0203   0.0457   0.0461   0.0133
  36 H   :2px   -0.0027  -0.0102   0.0003  -0.0043   0.0560  -0.0258  -0.0199

    Orbital         8        9       10       11       12
   1 C   :2px    0.1284   0.2422   0.1208   0.4797  -0.5723
   2 C   :2px   -0.1799  -0.1691  -0.0504  -0.2592   0.4882
   3 C   :2px   -0.0278   0.0009  -0.0537  -0.0397  -0.0027
   4 C   :3d2-   0.3584   0.0210   0.2847   0.3435   0.2080
   5 C   :3d1+   0.1219  -0.3249  -0.0788  -0.1707   0.2399
   6 C   :3d2-   0.0745  -0.0113   0.0591   0.0438   0.0320
   7 C   :3d1+   0.0040   0.0025  -0.1213  -0.0684  -0.0468
   8 O   :2px    0.2893   0.2699   0.2585   0.3004  -0.1654
   9 O   :2px   -0.3322  -0.2028  -0.2022  -0.2532   0.1744
  10 O   :2px   -0.0479  -0.0445  -0.0180  -0.0044   0.0649
  11 O   :3d2-   0.4535   0.1192  -0.3331  -0.2676  -0.0599
  12 O   :3d1+   0.0925   0.2446  -0.1012   0.1029  -0.3279
  13 O   :3d2-   0.2946   0.1130  -0.2069  -0.1318  -0.0416
  14 O   :3d1+   0.0906   0.1014  -0.0963  -0.0039  -0.1125
  15 C   :2px    0.0079   0.0503  -0.3650   0.4893   0.8863
  16 C   :2px    0.1650   0.0234   0.1809  -0.5765  -1.0234
  17 C   :2px    0.0395  -0.0125   0.0684  -0.0381   0.0203
  18 C   :3d2-   0.0613   0.2484   0.1563  -0.3299   0.3117
  19 C   :3d1+  -0.0413   0.2096  -0.3341   0.0894  -0.0789
  20 C   :3d2-   0.0750   0.1037  -0.0163  -0.1686  -0.0244
  21 C   :3d1+  -0.0425  -0.0436  -0.0277  -0.0224   0.1082
  22 C   :2px   -0.3608   0.1096  -0.5503   0.4782  -0.4095
  23 C   :2px    0.2115  -0.1696   0.4640  -0.3757   0.5873
  24 C   :2px    0.0206  -0.0077   0.0448  -0.0323  -0.0426
  25 C   :3d2-   0.1719  -0.4010  -0.2192   0.2045   0.1323
  26 C   :3d1+   0.0657  -0.2843   0.1751  -0.1428  -0.5051
  27 C   :3d2-   0.0660  -0.1100  -0.0484   0.0653  -0.0288
  28 C   :3d1+   0.0252  -0.1294   0.0674   0.0222   0.0768
  29 H   :2px    0.0643   0.0064   0.1763   0.2210   0.0971
  30 H   :2px    0.0206  -0.0188   0.0431   0.0351   0.0129
  31 H   :2px    0.0061  -0.0892  -0.0714   0.1273  -0.1660
  32 H   :2px    0.0395  -0.0218  -0.0085  -0.0116  -0.0081
  33 H   :2px    0.0459  -0.1359  -0.0953   0.0990   0.0902
  34 H   :2px    0.0234  -0.0336  -0.0014  -0.0013  -0.0262
  35 H   :2px   -0.0385   0.1592  -0.0213  -0.0024   0.2214
  36 H   :2px    0.0209   0.0213   0.0261   0.0057   0.0319

  Total CPU  time used in SIRIUS :  11.28 seconds
  Total wall time used in SIRIUS :  12.22 seconds

 
     Date and time (Linux)  : Mon Feb 20 22:10:27 2017
     Host name              : c91n05                                  


                     .---------------------------------------.
                     | End of Wave Function Section (SIRIUS) |
                     `---------------------------------------'

  Total CPU  time used in DALTON:  11.45 seconds
  Total wall time used in DALTON:  12.88 seconds

 
     Date and time (Linux)  : Mon Feb 20 22:10:28 2017
     Host name              : c91n05                                  
